<?xml version="1.0"?>
<VTKFile type="UnstructuredGrid"  version="0.1"  >
<UnstructuredGrid>
<Piece  NumberOfPoints="1000" NumberOfCells="4374">
<Points>
<DataArray  type="Float64"  NumberOfComponents="3"  format="ascii">0 0 0  0.1111111111111111 0 0  0.2222222222222222 0 0  0.3333333333333333 0 0  0.4444444444444444 0 0  0.5555555555555556 0 0  0.6666666666666666 0 0  0.7777777777777778 0 0  0.8888888888888888 0 0  1 0 0  0 0.1111111111111111 0  0.1111111111111111 0.1111111111111111 0  0.2222222222222222 0.1111111111111111 0  0.3333333333333333 0.1111111111111111 0  0.4444444444444444 0.1111111111111111 0  0.5555555555555556 0.1111111111111111 0  0.6666666666666666 0.1111111111111111 0  0.7777777777777778 0.1111111111111111 0  0.8888888888888888 0.1111111111111111 0  1 0.1111111111111111 0  0 0.2222222222222222 0  0.1111111111111111 0.2222222222222222 0  0.2222222222222222 0.2222222222222222 0  0.3333333333333333 0.2222222222222222 0  0.4444444444444444 0.2222222222222222 0  0.5555555555555556 0.2222222222222222 0  0.6666666666666666 0.2222222222222222 0  0.7777777777777778 0.2222222222222222 0  0.8888888888888888 0.2222222222222222 0  1 0.2222222222222222 0  0 0.3333333333333333 0  0.1111111111111111 0.3333333333333333 0  0.2222222222222222 0.3333333333333333 0  0.3333333333333333 0.3333333333333333 0  0.4444444444444444 0.3333333333333333 0  0.5555555555555556 0.3333333333333333 0  0.6666666666666666 0.3333333333333333 0  0.7777777777777778 0.3333333333333333 0  0.8888888888888888 0.3333333333333333 0  1 0.3333333333333333 0  0 0.4444444444444444 0  0.1111111111111111 0.4444444444444444 0  0.2222222222222222 0.4444444444444444 0  0.3333333333333333 0.4444444444444444 0  0.4444444444444444 0.4444444444444444 0  0.5555555555555556 0.4444444444444444 0  0.6666666666666666 0.4444444444444444 0  0.7777777777777778 0.4444444444444444 0  0.8888888888888888 0.4444444444444444 0  1 0.4444444444444444 0  0 0.5555555555555556 0  0.1111111111111111 0.5555555555555556 0  0.2222222222222222 0.5555555555555556 0  0.3333333333333333 0.5555555555555556 0  0.4444444444444444 0.5555555555555556 0  0.5555555555555556 0.5555555555555556 0  0.6666666666666666 0.5555555555555556 0  0.7777777777777778 0.5555555555555556 0  0.8888888888888888 0.5555555555555556 0  1 0.5555555555555556 0  0 0.6666666666666666 0  0.1111111111111111 0.6666666666666666 0  0.2222222222222222 0.6666666666666666 0  0.3333333333333333 0.6666666666666666 0  0.4444444444444444 0.6666666666666666 0  0.5555555555555556 0.6666666666666666 0  0.6666666666666666 0.6666666666666666 0  0.7777777777777778 0.6666666666666666 0  0.8888888888888888 0.6666666666666666 0  1 0.6666666666666666 0  0 0.7777777777777778 0  0.1111111111111111 0.7777777777777778 0  0.2222222222222222 0.7777777777777778 0  0.3333333333333333 0.7777777777777778 0  0.4444444444444444 0.7777777777777778 0  0.5555555555555556 0.7777777777777778 0  0.6666666666666666 0.7777777777777778 0  0.7777777777777778 0.7777777777777778 0  0.8888888888888888 0.7777777777777778 0  1 0.7777777777777778 0  0 0.8888888888888888 0  0.1111111111111111 0.8888888888888888 0  0.2222222222222222 0.8888888888888888 0  0.3333333333333333 0.8888888888888888 0  0.4444444444444444 0.8888888888888888 0  0.5555555555555556 0.8888888888888888 0  0.6666666666666666 0.8888888888888888 0  0.7777777777777778 0.8888888888888888 0  0.8888888888888888 0.8888888888888888 0  1 0.8888888888888888 0  0 1 0  0.1111111111111111 1 0  0.2222222222222222 1 0  0.3333333333333333 1 0  0.4444444444444444 1 0  0.5555555555555556 1 0  0.6666666666666666 1 0  0.7777777777777778 1 0  0.8888888888888888 1 0  1 1 0  0 0 0.1111111111111111  0.1111111111111111 0 0.1111111111111111  0.2222222222222222 0 0.1111111111111111  0.3333333333333333 0 0.1111111111111111  0.4444444444444444 0 0.1111111111111111  0.5555555555555556 0 0.1111111111111111  0.6666666666666666 0 0.1111111111111111  0.7777777777777778 0 0.1111111111111111  0.8888888888888888 0 0.1111111111111111  1 0 0.1111111111111111  0 0.1111111111111111 0.1111111111111111  0.1111111111111111 0.1111111111111111 0.1111111111111111  0.2222222222222222 0.1111111111111111 0.1111111111111111  0.3333333333333333 0.1111111111111111 0.1111111111111111  0.4444444444444444 0.1111111111111111 0.1111111111111111  0.5555555555555556 0.1111111111111111 0.1111111111111111  0.6666666666666666 0.1111111111111111 0.1111111111111111  0.7777777777777778 0.1111111111111111 0.1111111111111111  0.8888888888888888 0.1111111111111111 0.1111111111111111  1 0.1111111111111111 0.1111111111111111  0 0.2222222222222222 0.1111111111111111  0.1111111111111111 0.2222222222222222 0.1111111111111111  0.2222222222222222 0.2222222222222222 0.1111111111111111  0.3333333333333333 0.2222222222222222 0.1111111111111111  0.4444444444444444 0.2222222222222222 0.1111111111111111  0.5555555555555556 0.2222222222222222 0.1111111111111111  0.6666666666666666 0.2222222222222222 0.1111111111111111  0.7777777777777778 0.2222222222222222 0.1111111111111111  0.8888888888888888 0.2222222222222222 0.1111111111111111  1 0.2222222222222222 0.1111111111111111  0 0.3333333333333333 0.1111111111111111  0.1111111111111111 0.3333333333333333 0.1111111111111111  0.2222222222222222 0.3333333333333333 0.1111111111111111  0.3333333333333333 0.3333333333333333 0.1111111111111111  0.4444444444444444 0.3333333333333333 0.1111111111111111  0.5555555555555556 0.3333333333333333 0.1111111111111111  0.6666666666666666 0.3333333333333333 0.1111111111111111  0.7777777777777778 0.3333333333333333 0.1111111111111111  0.8888888888888888 0.3333333333333333 0.1111111111111111  1 0.3333333333333333 0.1111111111111111  0 0.4444444444444444 0.1111111111111111  0.1111111111111111 0.4444444444444444 0.1111111111111111  0.2222222222222222 0.4444444444444444 0.1111111111111111  0.3333333333333333 0.4444444444444444 0.1111111111111111  0.4444444444444444 0.4444444444444444 0.1111111111111111  0.5555555555555556 0.4444444444444444 0.1111111111111111  0.6666666666666666 0.4444444444444444 0.1111111111111111  0.7777777777777778 0.4444444444444444 0.1111111111111111  0.8888888888888888 0.4444444444444444 0.1111111111111111  1 0.4444444444444444 0.1111111111111111  0 0.5555555555555556 0.1111111111111111  0.1111111111111111 0.5555555555555556 0.1111111111111111  0.2222222222222222 0.5555555555555556 0.1111111111111111  0.3333333333333333 0.5555555555555556 0.1111111111111111  0.4444444444444444 0.5555555555555556 0.1111111111111111  0.5555555555555556 0.5555555555555556 0.1111111111111111  0.6666666666666666 0.5555555555555556 0.1111111111111111  0.7777777777777778 0.5555555555555556 0.1111111111111111  0.8888888888888888 0.5555555555555556 0.1111111111111111  1 0.5555555555555556 0.1111111111111111  0 0.6666666666666666 0.1111111111111111  0.1111111111111111 0.6666666666666666 0.1111111111111111  0.2222222222222222 0.6666666666666666 0.1111111111111111  0.3333333333333333 0.6666666666666666 0.1111111111111111  0.4444444444444444 0.6666666666666666 0.1111111111111111  0.5555555555555556 0.6666666666666666 0.1111111111111111  0.6666666666666666 0.6666666666666666 0.1111111111111111  0.7777777777777778 0.6666666666666666 0.1111111111111111  0.8888888888888888 0.6666666666666666 0.1111111111111111  1 0.6666666666666666 0.1111111111111111  0 0.7777777777777778 0.1111111111111111  0.1111111111111111 0.7777777777777778 0.1111111111111111  0.2222222222222222 0.7777777777777778 0.1111111111111111  0.3333333333333333 0.7777777777777778 0.1111111111111111  0.4444444444444444 0.7777777777777778 0.1111111111111111  0.5555555555555556 0.7777777777777778 0.1111111111111111  0.6666666666666666 0.7777777777777778 0.1111111111111111  0.7777777777777778 0.7777777777777778 0.1111111111111111  0.8888888888888888 0.7777777777777778 0.1111111111111111  1 0.7777777777777778 0.1111111111111111  0 0.8888888888888888 0.1111111111111111  0.1111111111111111 0.8888888888888888 0.1111111111111111  0.2222222222222222 0.8888888888888888 0.1111111111111111  0.3333333333333333 0.8888888888888888 0.1111111111111111  0.4444444444444444 0.8888888888888888 0.1111111111111111  0.5555555555555556 0.8888888888888888 0.1111111111111111  0.6666666666666666 0.8888888888888888 0.1111111111111111  0.7777777777777778 0.8888888888888888 0.1111111111111111  0.8888888888888888 0.8888888888888888 0.1111111111111111  1 0.8888888888888888 0.1111111111111111  0 1 0.1111111111111111  0.1111111111111111 1 0.1111111111111111  0.2222222222222222 1 0.1111111111111111  0.3333333333333333 1 0.1111111111111111  0.4444444444444444 1 0.1111111111111111  0.5555555555555556 1 0.1111111111111111  0.6666666666666666 1 0.1111111111111111  0.7777777777777778 1 0.1111111111111111  0.8888888888888888 1 0.1111111111111111  1 1 0.1111111111111111  0 0 0.2222222222222222  0.1111111111111111 0 0.2222222222222222  0.2222222222222222 0 0.2222222222222222  0.3333333333333333 0 0.2222222222222222  0.4444444444444444 0 0.2222222222222222  0.5555555555555556 0 0.2222222222222222  0.6666666666666666 0 0.2222222222222222  0.7777777777777778 0 0.2222222222222222  0.8888888888888888 0 0.2222222222222222  1 0 0.2222222222222222  0 0.1111111111111111 0.2222222222222222  0.1111111111111111 0.1111111111111111 0.2222222222222222  0.2222222222222222 0.1111111111111111 0.2222222222222222  0.3333333333333333 0.1111111111111111 0.2222222222222222  0.4444444444444444 0.1111111111111111 0.2222222222222222  0.5555555555555556 0.1111111111111111 0.2222222222222222  0.6666666666666666 0.1111111111111111 0.2222222222222222  0.7777777777777778 0.1111111111111111 0.2222222222222222  0.8888888888888888 0.1111111111111111 0.2222222222222222  1 0.1111111111111111 0.2222222222222222  0 0.2222222222222222 0.2222222222222222  0.1111111111111111 0.2222222222222222 0.2222222222222222  0.2222222222222222 0.2222222222222222 0.2222222222222222  0.3333333333333333 0.2222222222222222 0.2222222222222222  0.4444444444444444 0.2222222222222222 0.2222222222222222  0.5555555555555556 0.2222222222222222 0.22222
[...]
<PointData  Scalars="f_11"> 
<DataArray  type="Float64"  Name="f_11"  format="ascii">2.4327464347522372e-03  2.5508958422986987e-03  7.3524510009574835e-04  1.3513211176051365e-03  1.3188305995832927e-03  4.3417330865579695e-03  8.1821056983834087e-03  1.2166537449507950e-02  1.5798394624590387e-02  1.6982444335001193e-02  2.6460521825470394e-03  2.1192303420824619e-03  1.4121218007712780e-03  1.6029040404592493e-03  1.2477392452235336e-03  4.5582077148447336e-03  8.4415309965280780e-03  1.2376751476734268e-02  1.5925649395167066e-02  1.7205171384775647e-02  2.8085960255120404e-03  2.1156628423813538e-03  1.7737554634733033e-03  1.8367675666512602e-03  1.2851690668473359e-03  4.4543735540069213e-03  8.3631522612073669e-03  1.2290441667710775e-02  1.5825373406341006e-02  1.7208754015183486e-02  2.9110168089618409e-03  2.1571544626730445e-03  1.8609975076053255e-03  1.9078160769780798e-03  1.2867602298426498e-03  4.2571716723602965e-03  8.1318482055573738e-03  1.2040133567008934e-02  1.5578804360426579e-02  1.7032326647526547e-02  2.9307985756598168e-03  2.1639825502821983e-03  1.8838710745556590e-03  1.9079123275675160e-03  1.2478454622668750e-03  4.0171816534656027e-03  7.8217683968478807e-03  1.1702248063671358e-02  1.5255798247248500e-02  1.6759121177986017e-02  2.8383852794950648e-03  2.1031162690505660e-03  1.9488154796154684e-03  1.9199656020027732e-03  1.2017072879112328e-03  3.7249206293511541e-03  7.4427235161110133e-03  1.1294133323603503e-02  1.4874498320232590e-02  1.6433137667849221e-02  2.6195743838994465e-03  1.9723788532071884e-03  2.0384746714111369e-03  2.0248573933503017e-03  1.2321055655425267e-03  3.3379380217865226e-03  6.9521420552142305e-03  1.0774953894188255e-02  1.4395357080979637e-02  1.6043350929174929e-02  2.3157818459511731e-03  1.8746837017155921e-03  1.9806857328830314e-03  2.1398022531534562e-03  1.2903356101185218e-03  2.7393523752160392e-03  6.2402464424093224e-03  1.0051021420268577e-02  1.3736060615454390e-02  1.5528305437267007e-02  2.1491496270762966e-03  2.6303297787954724e-03  1.6671880094560800e-03  2.5874454660116258e-03  1.5762505592881865e-03  1.6641116930508348e-03  5.1001112226642387e-03  9.0057353656984029e-03  1.2849409945827811e-02  1.4822065128225051e-02  2.1491496270762966e-03  2.6303297787954724e-03  1.6671880094560800e-03  2.5874454660116258e-03  1.5762505592881865e-03  1.6641116930508348e-03  5.1001112226642387e-03  9.0057353656984029e-03  1.2849409945827811e-02  1.3299151510577853e-02  1.6697920811285100e-03  2.0349991202015631e-03  7.8953775389361755e-04  1.0641670956840939e-03  1.6725955798318967e-03  5.2230805277514794e-03  9.3846943906751024e-03  1.3676346067225342e-02  1.7753845448820832e-02  1.9227227914631148e-02  1.7640161529113990e-03  1.6097596848933943e-03  1.2261642103255366e-03  1.2839503170972433e-03  1.7140064678078243e-03  5.4471288873771118e-03  9.6766911495173302e-03  1.3957440738040089e-02  1.7964892215612885e-02  1.9573309499245989e-02  1.7731799744684154e-03  1.5258217839044345e-03  1.5169724905151477e-03  1.4584032289935850e-03  1.5756235938394966e-03  5.3682899372596848e-03  9.6242968783449220e-03  1.3910923206257503e-02  1.7900922156020946e-02  1.9612151506041703e-02  1.7817823399015886e-03  1.4908471906405450e-03  1.5870297806428457e-03  1.5117273022094598e-03  1.4253086634715695e-03  5.1720358888467724e-03  9.3990903823587685e-03  1.3679045904222364e-02  1.7671261423088405e-02  1.9445336748648553e-02  1.8170703877666006e-03  1.4792640173983303e-03  1.5954766032415454e-03  1.5110400593991123e-03  1.2612155388448260e-03  4.9133622140909022e-03  9.0803701571476533e-03  1.3345019061692998e-02  1.7353840004987131e-02  1.9172735019853476e-02  1.8573954281920768e-03  1.4905654130650328e-03  1.6503325882096832e-03  1.5150125871487320e-03  1.0669707642357029e-03  4.5913410735325400e-03  8.6854596285104377e-03  1.2931630715889625e-02  1.6969520009451136e-02  1.8842629383254331e-02  1.8433724547022926e-03  1.5146005940729138e-03  1.7719432415280421e-03  1.5349008550980224e-03  9.1793576807717298e-04  4.1722203392928411e-03  8.1794102325693091e-03  1.2401433180405194e-02  1.6476670382469930e-02  1.8442192940502186e-02  1.6592528231279061e-03  1.5265215070049271e-03  1.8439331392627045e-03  1.7259818101888064e-03  1.0116583184883940e-03  3.5654621201295505e-03  7.4665434727538213e-03  1.1660279231248294e-02  1.5778499639241786e-02  1.7897241050486290e-02  1.2216521988419118e-03  1.5458652709625306e-03  1.5778189380509303e-03  2.0533312223924224e-03  1.2774286125444220e-03  2.5665701109952033e-03  6.3749788697635631e-03  1.0573674311580281e-02  1.4754676276500525e-02  1.7081014602066916e-02  1.2216521988419118e-03  1.5458652709625306e-03  1.5778189380509303e-03  2.0533312223924224e-03  1.2774286125444220e-03  2.5665701109952033e-03  6.3749788697635631e-03  1.0573674311580281e-02  1.4754676276500525e-02  1.5074504833480010e-02  7.5178784219594175e-04  1.0345293405002939e-03  9.1733135397042281e-04  9.6988777325877559e-04  2.2174008661929728e-03  6.0200067641099225e-03  1.0574054002872951e-02  1.5438931700104477e-02  2.0487000237829622e-02  2.2676146107849196e-02  8.5043145621889471e-04  9.4478154694249694e-04  1.4231990189243204e-03  1.2200100093708588e-03  2.1963578150408156e-03  6.2037168545266211e-03  1.0884151349833900e-02  1.5808420481695076e-02  2.0817348674131611e-02  2.3201540638427956e-02  8.1287257876573593e-04  1.0429217051848502e-03  1.6082944655878492e-03  1.3344966439599176e-03  2.0895371277360325e-03  6.1395297859019593e-03  1.0860353712231693e-02  1.5817160357262855e-02  2.0809670997217478e-02  2.3289827681735750e-02  8.0527415544418002e-04  1.0370546092158331e-03  1.6281806859425527e-03  1.3509539513200004e-03  1.9593199148333768e-03  5.9525098528853335e-03  1.0652159848474133e-02  1.5618251858154505e-02  2.0612270903506827e-02  2.3144229652481377e-02  8.7091159299607090e-04  9.8298558187460972e-04  1.6146791067861641e-03  1.3356881125641332e-03  1.7905970098575710e-03  5.6872863964823051e-03  1.0336330147651097e-02  1.5299713068784318e-02  2.0311605094671767e-02  2.2883179630732442e-02  9.7738284723608571e-04  9.7981808386270186e-04  1.6704628368007027e-03  1.3444504044702460e-03  1.5511661732634657e-03  5.3464284671500550e-03  9.9342407007243505e-03  1.4887777294698423e-02  1.9929618406601207e-02  2.2556160171147782e-02  1.0393400277812354e-03  1.0932626279774385e-03  1.8330542324325391e-03  1.3969926350723104e-03  1.2187856725081186e-03  4.9063711328521387e-03  9.4185115973704908e-03  1.4347205306793134e-02  1.9421566610790877e-02  2.2147208985440495e-02  9.1800051455953602e-04  1.2482857635871397e-03  2.0034016167714205e-03  1.4576673218574705e-03  9.6957505401435579e-04  4.3099582456603558e-03  8.7090370498818931e-03  1.3579333760293411e-02  1.8670715496767090e-02  2.1569587139798382e-02  5.6511484524668365e-04  1.0000668704091276e-03  1.7828533701050309e-03  1.6417290706058109e-03  1.1193735499554908e-03  3.4425339687144813e-03  7.6666298210824463e-03  1.2421780206664998e-02  1.7458609163246097e-02  2.0628549622546288e-02  5.6511484524668365e-04  1.0000668704091276e-03  1.7828533701050309e-03  1.6417290706058109e-03  1.1193735499554908e-03  3.4425339687144813e-03  7.6666298210824463e-03  1.2421780206664998e-02  1.7458609163246097e-02  1.7846258910008267e-02  9.2225483657355778e-04  1.4819685095232155e-03  1.3468443316055900e-03  9.9781555897014707e-04  2.8531820346756748e-03  6.9486924295831670e-03  1.1958583592100891e-02  1.7651667689521477e-02  2.4083637200123770e-02  2.7203821540530332e-02  1.0080874009452678e-03  1.8408106740135100e-03  1.8084397898659732e-03  1.2633824899348639e-03  2.8060300740583716e-03  7.1235980275671587e-03  1.2307308659281410e-02  1.8118688029374247e-02  2.4543096302652043e-02  2.7919946880520380e-02  9.3971182030247458e-04  1.9767671768032569e-03  1.9565888127545950e-03  1.3569483676821661e-03  2.7308145266366282e-03  7.0924824994840763e-03  1.2331947374350893e-02  1.8194879879310982e-02  2.4599861045825400e-02  2.8066131593021931e-02  9.2452286314989585e-04  1.9789102525291924e-03  1.9634205680906514e-03  1.3611328838117956e-03  2.6237361442933427e-03  6.9331905981397587e-03  1.2160840081729532e-02  1.8041002818774812e-02  2.4439896346863388e-02  2.7947983893182191e-02  1.0173807145430480e-03  1.9100006577931067e-03  1.9457347901402078e-03  1.3449968914042293e-03  2.4561134792386932e-03  6.6775925626469043e-03  1.1864639283454839e-02  1.7746692409434869e-02  2.4156097471303858e-02  2.7699794532386718e-02  1.1735160713511744e-03  1.8720570400222458e-03  2.0030552722587469e-03  1.3627032730171643e-03  2.1971467938675382e-03  6.3288127325237462e-03  1.1465312750626344e-02  1.7338583400664354e-02  2.3769457263757718e-02  2.7369721700560568e-02  1.2844218459041462e-03  1.9529676309964633e-03  2.1832690614447536e-03  1.4375438532942889e-03  1.8311245786191560e-03  5.8716133617072383e-03  1.0940839923317167e-02  1.6782062141701679e-02  2.3231827528339286e-02  2.6938277093727134e-02  1.1921001121728836e-03  2.1236762232660633e-03  2.4041276409510759e-03  1.5327022224741332e-03  1.3706449336781945e-03  5.2741750212545804e-03  1.0223358895927362e-02  1.5973530475790851e-02  2.2407888748338864e-02  2.6308481220996743e-02  8.2694955539985848e-04  2.0186380418575206e-03  2.2858572924119719e-03  1.5035850214645125e-03  1.0734677662991854e-03  4.4813930225584483e-03  9.1956351333372099e-03  1.4726719681366435e-02  2.0997754758636897e-02  2.5231664262054004e-02  8.2694955539985848e-04  2.0186380418575206e-03  2.2858572924119719e-03  1.5035850214645125e-03  1.0734677662991854e-03  4.4813930225584483e-03  9.1956351333372099e-03  1.4726719681366435e-02  2.0997754758636897e-02  2.1626044845482778e-02  8.2247314304956243e-04  1.9905508047091125e-03  1.5779336767323821e-03  1.0764478977182135e-03  3.6408961513200028e-03  8.1646329745054258e-03  1.3747160935774688e-02  2.0419434734321049e-02  2.8419624887677505e-02  3.2516476892553672e-02  9.8175088765659058e-04  2.2555004265465556e-03  1.9400463030376514e-03  1.3171207339932739e-03  3.6449062682312183e-03  8.3898968446295477e-03  1.4157961756506535e-02  2.0971573750221073e-02  2.8986837607521077e-02  3.3379596933575256e-02  9.9628229027221016e-04  2.4078329628768186e-03  2.0685579361231637e-03  1.3989029186261548e-03  3.6251290993236651e-03  8.4208848474585374e-03  1.4247799176102721e-02  2.1115667115266329e-02  2.9107211142988060e-02  3.3587106559756261e-02  9.6319571269251614e-04  2.4326437473334711e-03  2.0784581275906794e-03  1.4024556449531850e-03  3.5552255283879952e-03  8.3100701360656823e-03  1.4128608785927255e-02  2.1010884144293140e-02  2.8984737696665680e-02  3.3504032531471675e-02  9.4694021434002518e-04  2.3622080039185922e-03  2.0642776213016245e-03  1.3918267543147067e-03  3.4014731303887158e-03  8.0794776509837962e-03  1.3862121704846478e-02  2.0741757158307603e-02  2.8711238584421483e-02  3.3267791145644154e-02  1.0183117837629097e-03  2.2994287993632068e-03  2.1209796404180886e-03  1.4184622813920716e-03  3.1343595072542141e-03  7.7309322121573779e-03  1.3467312574516679e-02  2.0331262789256677e-02  2.8303525349606368e-02  3.2921213378699840e-02  1.1532780995491820e-03  2.3561437860841472e-03  2.3076528641555183e-03  1.5078522235144054e-03  2.7415449775786138e-03  7.2539181590962412e-03  1.2924805299688868e-02  1.9744334526819535e-02  2.7710921141481701e-02  3.2440855398810212e-02  1.1844114524176830e-03  2.5523304175391337e-03  2.5707201505599242e-03  1.6282476500510124e-03  2.2456329892658611e-03  6.6300614337057653e-03  1.2175192181239400e-02  1.8877140080275259e-02  2.6790931093824272e-02  3.1726553695851714e-02  1.2823730317293169e-03  2.6169892387553073e-03  2.5951154528375403e-03  1.6377543338103873e-03  1.7154326698231859e-03  5.8298008517738767e-03  1.1113291832420893e-02  1.7535903441075459e-02  2.5209691061717762e-02  3.0510393426452204e-02  1.2823730317293169e-03  2.6169892387553073e-03  2.5951154528375403e-03  1.6377543338103873e-03  1.7154326698231859e-03  5.8298008517738767e-03  1.1113291832420893e-02  1.7535903441075459e-02  2.5209691061717762e-02  2.6160179680788195e-02  1.1172610565784447e-03  2.1078828106702308e-03  1.5163588477896117e-03  1.2556896976906456e-03  4.8498900585057098e-03  1.0015050233495276e-02  1.6320542913906153e-02  2.3938502927539809e-02  3.3295431782210644e-02  3.8231710473664360e-02  1.0715883419931127e-03  2.2770305506170929e-03  1.7339662354436125e-03  1.4032941322639769e-03  4.9501696838310100e-03  1.0323539237422616e-02  1.6796753129022388e-02  2.4543567941979538e-02  3.3927965338391042e-02  3.9160456831592805e-02  1.2666832762546487e-03  2.4329519841086444e-03  1.8391923831707763e-03  1.4648713303282851e-03  4.9982484484661915e-03  1.0427476062922131e-02  1.6951660559521325e-02  2.4743529365701775e-02  3.4107043548152763e-02  3.9431907134183430e-02  1.3329465499738735e-03  2.4797677873331092e-03  1.8584617752986088e-03  1.4720861910844929e-03  4.9724208591073737e-03  1.0370492154016933e-02  1.6883152161456860e-02  2.4682016146450436e-02  3.4024093549394896e-02  3.9399123841138015e-02  1.1923149684631706e-03  2.4147859206068156e-03  1.8248312274808526e-03  1.4432420985646260e-03  4.8414840864377251e-03  1.0167957510243616e-02  1.6641723787363505e-02  2.4430568167453121e-02  3.3758011473193142e-02  3.9183213872918038e-02  1.0035506619094081e-03  2.3373930564855039e-03  1.7937723058645411e-03  1.3923531427142144e-03  4.5768279155880831e-03  9.8184841512853199e-03  1.6240204203126496e-02  2.4004107479833947e-02  3.3317286095647533e-02  3.8815754715284465e-02  9.9660050197425409e-04  2.3810589585693265e-03  1.9194377267601342e-03  1.4301190252028473e-03  4.1649139277370878e-03  9.3117495143163337e-03  1.5658970390301244e-02  2.3366243849085533e-02  3.2649645683406420e-02  3.8268449871719734e-02  1.2403631293401440e-03  2.6136499624175025e-03  2.2123205900198423e-03  1.5632706179231209e-03  3.6230643302433974e-03  8.6324781426716235e-03  1.4844718605508858e-02  2.2420896254637487e-02  3.1621448649326020e-02  3.7446088553651433e-02  1.9133259090746424e-03  2.8334034055582935e-03  2.3821091604228489e-03  1.6223008637911984e-03  3.0041943121413700e-03  7.7510141979486857e-03  1.3700406925756692e-02  2.0993176294969412e-02  2.9934082910299045e-02  3.6110504671374263e-02  1.9133259090746424e-03  2.8334034055582935e-03  2.3821091604228489e-03  1.6223008637911984e-03  3.0041943121413700e-03  7.7510141979486857e-03  1.3700406925756692e-02  2.0993176294969412e-02  2.9934082910299045e-02  3.1183959534068190e-02  1.7910244438497092e-03  1.6821598627968504e-03  1.4832150256935406e-03  2.2594516129553210e-03  6.7455371803544079e-03  1.2676892623969108e-02  1.9808208063634966e-02  2.8306013316231407e-02  3.8653623256344666e-02  4.4174106995447548e-02  1.6985401225384777e-03  1.7634249497857635e-03  1.6201550230797168e-03  2.2324753199877423e-03  6.9245584044132086e-03  1.3049820542616358e-02  2.0324478481825850e-02  2.8920643874251167e-02  3.9297603227548369e-02  4.5072706113497882e-02  1.9048259400320233e-03  1.9091390290695842e-03  1.7014887162842829e-03  2.2435183147960502e-03  7.0185956344416822e-03  1.3206346553690629e-02  2.0525365469343762e-02  2.9155138827367796e-02  3.9522673055781499e-02  4.5404119442786287e-02  1.9921516333590850e-03  1.9656712622407868e-03  1.7179808183967193e-03  2.2580691529956454e-03  7.0237339457162595e-03  1.3189658037890031e-02  2.0494541519842008e-02  2.9125022047694987e-02  3.9478730791191644e-02  4.5433591228384890e-02  1.8656656630517410e-03  1.8989922604213394e-03  1.6815267531199996e-03  2.2242578063224883e-03  6.9138332376994377e-03  1.3008968530526396e-02  2.0268950151452483e-02  2.8883024615516659e-02  3.9222416157633083e-02  4.5251062656156721e-02  1.6504708564118453e-03  1.8022107824620659e-03  1.6398710005235961e-03  2.0852442270741511e-03  6.6591089214009525e-03  1.2656923041607482e-02  1.9852218734851643e-02  2.8432800416997236e-02  3.8750116855904931e-02  4.4871964822152013e-02  1.5798598840487676e-03  1.8230310991788623e-03  1.6525203564657642e-03  1.8999140347341903e-03  6.2403763191890560e-03  1.2119056156607799e-02  1.9221918237219554e-02  2.7736059165114249e-02  3.8008324064114071e-02  4.4261714515005407e-02  1.8946207977101337e-03  2.0696802533601288e-03  1.7462939679289136e-03  1.7782152240866100e-03  5.6600834998316585e-03  1.1375997076038008e-02  1.8329543596158321e-02  2.6710471589598314e-02  3.6884133319407847e-02  4.3334532399641537e-02  2.7207244191686519e-03  2.4137096810297465e-03  1.8170352269454293e-03  1.6583032844695311e-03  4.9311443000662758e-03  1.0383099355754391e-02  1.7085771547491038e-02  2.5224045212465337e-02  3.5179068188221377e-02  4.1924616188661404e-02  2.7207244191686519e-03  2.4137096810297465e-03  1.8170352269454293e-03  1.6583032844695311e-03  4.9311443000662758e-03  1.0383099355754391e-02  1.7085771547491038e-02  2.5224045212465337e-02  3.5179068188221377e-02  3.6599611653370626e-02  2.3078731815555087e-03  1.2561571003039951e-03  1.6850067880764263e-03  4.4399990949349211e-03  9.5686780501543500e-03  1.6200274510016238e-02  2.4122937264012032e-02  3.3448129712634389e-02  4.4542435533885080e-02  5.0400990171084736e-02  2.1117031447179524e-03  1.2211860022989796e-03  1.7102475886834612e-03  4.4652907187283375e-03  9.7756272183277537e-03  1.6590261176553850e-02  2.4642037376261985e-02  3.4037021458796099e-02  4.5153024146810772e-02  5.1209384330463376e-02  2.1188088025591856e-03  1.2469871013583433e-03  1.7415915895288014e-03  4.4849990353169056e-03  9.8802877781349330e-03  1.6766243395893665e-02  2.4863379162095800e-02  3.4283878582277258e-02  4.5404478153025715e-02  5.1587602957142195e-02  2.1935500126763485e-03  1.3052625961982589e-03  1.7646596443655072e-03  4.5024437786468086e-03  9.8974671187465335e-03  1.6772049498635949e-02  2.4856887118107601e-02  3.4273782655380058e-02  4.5392097928148537e-02  5.1676626068199366e-02  2.2466329806517527e-03  1.3311787005282627e-03  1.7573148382293291e-03  4.4792708386707514e-03  9.8040773965762107e-03  1.6610013943487351e-02  2.4645382411003183e-02  3.4039828055570889e-02  4.5148353415425987e-02  5.1532939892737217e-02  2.2418126151134421e-03  1.3028919504786685e-03  1.7150349408598109e-03  4.3609882887768181e-03  9.5664123179357852e-03  1.6264323228179361e-02  2.4221934676603912e-02  3.3573971458583887e-02  4.4657115911478293e-02  5.1155732567506745e-02  2.1819089052093898e-03  1.2311432091362817e-03  1.6479125727522914e-03  4.0999105499229249e-03  9.1566224142637931e-03  1.5713139879641763e-02  2.3559193051668995e-02  3.2835407283379650e-02  4.3863551526778774e-02  5.0503207633832523e-02  2.1001718043453799e-03  1.1491488622822066e-03  1.5704414767649943e-03  3.6798221486111782e-03  8.5607810914331006e-03  1.4930499767841138e-02  2.2611905979639774e-02  3.1755855319226436e-02  4.2677462293920360e-02  4.9498641184739137e-02  2.0766377801896274e-03  1.0689590797255399e-03  1.4463176605414574e-03  3.1103400685114635e-03  7.7536329093294276e-03  1.3859594975462658e-02  2.1299380567629575e-02  3.0246165543939774e-02  4.1008813858162976e-02  4.8049959316354030e-02  2.0766377801896274e-03  1.0689590797255399e-03  1.4463176605414574e-03  3.1103400685114635e-03  7.7536329093294276e-03  1.3859594975462658e-02  2.1299380567629575e-02  3.0246165543939774e-02  4.1008813858162976e-02  4.2469365266959894e-02  2.8330703338840524e-03  1.3552901701193720e-03  2.9766094484588446e-03  7.7083065971161047e-03  1.3706305280137832e-02  2.0958790807836469e-02  2.9499793248684458e-02  3.9410445744786166e-02  5.0835985026338973e-02  5.6699078092498065e-02  2.8691646840142970e-03  1.4425162080211607e-03  2.9993289449592453e-03  7.7739073536657877e-03  1.3925251874452649e-02  2.1351998707368508e-02  3.0018227976863127e-02  3.9980188172946712e-02  5.1407685560120001e-02  5.7424940638816604e-02  2.6528951218245667e-03  1.4099297767602714e-03  2.9753870489990508e-03  7.7995963408090396e-03  1.4031269168042620e-02  2.1534588569547014e-02  3.0249373495097293e-02  4.0230594532401354e-02  5.1667573043092108e-02  5.7827626785317360e