<?xml version="1.0"?>
<VTKFile type="UnstructuredGrid"  version="0.1"  >
<UnstructuredGrid>
<Piece  NumberOfPoints="1000" NumberOfCells="4374">
<Points>
<DataArray  type="Float64"  NumberOfComponents="3"  format="ascii">0 0 0  0.1111111111111111 0 0  0.2222222222222222 0 0  0.3333333333333333 0 0  0.4444444444444444 0 0  0.5555555555555556 0 0  0.6666666666666666 0 0  0.7777777777777778 0 0  0.8888888888888888 0 0  1 0 0  0 0.1111111111111111 0  0.1111111111111111 0.1111111111111111 0  0.2222222222222222 0.1111111111111111 0  0.3333333333333333 0.1111111111111111 0  0.4444444444444444 0.1111111111111111 0  0.5555555555555556 0.1111111111111111 0  0.6666666666666666 0.1111111111111111 0  0.7777777777777778 0.1111111111111111 0  0.8888888888888888 0.1111111111111111 0  1 0.1111111111111111 0  0 0.2222222222222222 0  0.1111111111111111 0.2222222222222222 0  0.2222222222222222 0.2222222222222222 0  0.3333333333333333 0.2222222222222222 0  0.4444444444444444 0.2222222222222222 0  0.5555555555555556 0.2222222222222222 0  0.6666666666666666 0.2222222222222222 0  0.7777777777777778 0.2222222222222222 0  0.8888888888888888 0.2222222222222222 0  1 0.2222222222222222 0  0 0.3333333333333333 0  0.1111111111111111 0.3333333333333333 0  0.2222222222222222 0.3333333333333333 0  0.3333333333333333 0.3333333333333333 0  0.4444444444444444 0.3333333333333333 0  0.5555555555555556 0.3333333333333333 0  0.6666666666666666 0.3333333333333333 0  0.7777777777777778 0.3333333333333333 0  0.8888888888888888 0.3333333333333333 0  1 0.3333333333333333 0  0 0.4444444444444444 0  0.1111111111111111 0.4444444444444444 0  0.2222222222222222 0.4444444444444444 0  0.3333333333333333 0.4444444444444444 0  0.4444444444444444 0.4444444444444444 0  0.5555555555555556 0.4444444444444444 0  0.6666666666666666 0.4444444444444444 0  0.7777777777777778 0.4444444444444444 0  0.8888888888888888 0.4444444444444444 0  1 0.4444444444444444 0  0 0.5555555555555556 0  0.1111111111111111 0.5555555555555556 0  0.2222222222222222 0.5555555555555556 0  0.3333333333333333 0.5555555555555556 0  0.4444444444444444 0.5555555555555556 0  0.5555555555555556 0.5555555555555556 0  0.6666666666666666 0.5555555555555556 0  0.7777777777777778 0.5555555555555556 0  0.8888888888888888 0.5555555555555556 0  1 0.5555555555555556 0  0 0.6666666666666666 0  0.1111111111111111 0.6666666666666666 0  0.2222222222222222 0.6666666666666666 0  0.3333333333333333 0.6666666666666666 0  0.4444444444444444 0.6666666666666666 0  0.5555555555555556 0.6666666666666666 0  0.6666666666666666 0.6666666666666666 0  0.7777777777777778 0.6666666666666666 0  0.8888888888888888 0.6666666666666666 0  1 0.6666666666666666 0  0 0.7777777777777778 0  0.1111111111111111 0.7777777777777778 0  0.2222222222222222 0.7777777777777778 0  0.3333333333333333 0.7777777777777778 0  0.4444444444444444 0.7777777777777778 0  0.5555555555555556 0.7777777777777778 0  0.6666666666666666 0.7777777777777778 0  0.7777777777777778 0.7777777777777778 0  0.8888888888888888 0.7777777777777778 0  1 0.7777777777777778 0  0 0.8888888888888888 0  0.1111111111111111 0.8888888888888888 0  0.2222222222222222 0.8888888888888888 0  0.3333333333333333 0.8888888888888888 0  0.4444444444444444 0.8888888888888888 0  0.5555555555555556 0.8888888888888888 0  0.6666666666666666 0.8888888888888888 0  0.7777777777777778 0.8888888888888888 0  0.8888888888888888 0.8888888888888888 0  1 0.8888888888888888 0  0 1 0  0.1111111111111111 1 0  0.2222222222222222 1 0  0.3333333333333333 1 0  0.4444444444444444 1 0  0.5555555555555556 1 0  0.6666666666666666 1 0  0.7777777777777778 1 0  0.8888888888888888 1 0  1 1 0  0 0 0.1111111111111111  0.1111111111111111 0 0.1111111111111111  0.2222222222222222 0 0.1111111111111111  0.3333333333333333 0 0.1111111111111111  0.4444444444444444 0 0.1111111111111111  0.5555555555555556 0 0.1111111111111111  0.6666666666666666 0 0.1111111111111111  0.7777777777777778 0 0.1111111111111111  0.8888888888888888 0 0.1111111111111111  1 0 0.1111111111111111  0 0.1111111111111111 0.1111111111111111  0.1111111111111111 0.1111111111111111 0.1111111111111111  0.2222222222222222 0.1111111111111111 0.1111111111111111  0.3333333333333333 0.1111111111111111 0.1111111111111111  0.4444444444444444 0.1111111111111111 0.1111111111111111  0.5555555555555556 0.1111111111111111 0.1111111111111111  0.6666666666666666 0.1111111111111111 0.1111111111111111  0.7777777777777778 0.1111111111111111 0.1111111111111111  0.8888888888888888 0.1111111111111111 0.1111111111111111  1 0.1111111111111111 0.1111111111111111  0 0.2222222222222222 0.1111111111111111  0.1111111111111111 0.2222222222222222 0.1111111111111111  0.2222222222222222 0.2222222222222222 0.1111111111111111  0.3333333333333333 0.2222222222222222 0.1111111111111111  0.4444444444444444 0.2222222222222222 0.1111111111111111  0.5555555555555556 0.2222222222222222 0.1111111111111111  0.6666666666666666 0.2222222222222222 0.1111111111111111  0.7777777777777778 0.2222222222222222 0.1111111111111111  0.8888888888888888 0.2222222222222222 0.1111111111111111  1 0.2222222222222222 0.1111111111111111  0 0.3333333333333333 0.1111111111111111  0.1111111111111111 0.3333333333333333 0.1111111111111111  0.2222222222222222 0.3333333333333333 0.1111111111111111  0.3333333333333333 0.3333333333333333 0.1111111111111111  0.4444444444444444 0.3333333333333333 0.1111111111111111  0.5555555555555556 0.3333333333333333 0.1111111111111111  0.6666666666666666 0.3333333333333333 0.1111111111111111  0.7777777777777778 0.3333333333333333 0.1111111111111111  0.8888888888888888 0.3333333333333333 0.1111111111111111  1 0.3333333333333333 0.1111111111111111  0 0.4444444444444444 0.1111111111111111  0.1111111111111111 0.4444444444444444 0.1111111111111111  0.2222222222222222 0.4444444444444444 0.1111111111111111  0.3333333333333333 0.4444444444444444 0.1111111111111111  0.4444444444444444 0.4444444444444444 0.1111111111111111  0.5555555555555556 0.4444444444444444 0.1111111111111111  0.6666666666666666 0.4444444444444444 0.1111111111111111  0.7777777777777778 0.4444444444444444 0.1111111111111111  0.8888888888888888 0.4444444444444444 0.1111111111111111  1 0.4444444444444444 0.1111111111111111  0 0.5555555555555556 0.1111111111111111  0.1111111111111111 0.5555555555555556 0.1111111111111111  0.2222222222222222 0.5555555555555556 0.1111111111111111  0.3333333333333333 0.5555555555555556 0.1111111111111111  0.4444444444444444 0.5555555555555556 0.1111111111111111  0.5555555555555556 0.5555555555555556 0.1111111111111111  0.6666666666666666 0.5555555555555556 0.1111111111111111  0.7777777777777778 0.5555555555555556 0.1111111111111111  0.8888888888888888 0.5555555555555556 0.1111111111111111  1 0.5555555555555556 0.1111111111111111  0 0.6666666666666666 0.1111111111111111  0.1111111111111111 0.6666666666666666 0.1111111111111111  0.2222222222222222 0.6666666666666666 0.1111111111111111  0.3333333333333333 0.6666666666666666 0.1111111111111111  0.4444444444444444 0.6666666666666666 0.1111111111111111  0.5555555555555556 0.6666666666666666 0.1111111111111111  0.6666666666666666 0.6666666666666666 0.1111111111111111  0.7777777777777778 0.6666666666666666 0.1111111111111111  0.8888888888888888 0.6666666666666666 0.1111111111111111  1 0.6666666666666666 0.1111111111111111  0 0.7777777777777778 0.1111111111111111  0.1111111111111111 0.7777777777777778 0.1111111111111111  0.2222222222222222 0.7777777777777778 0.1111111111111111  0.3333333333333333 0.7777777777777778 0.1111111111111111  0.4444444444444444 0.7777777777777778 0.1111111111111111  0.5555555555555556 0.7777777777777778 0.1111111111111111  0.6666666666666666 0.7777777777777778 0.1111111111111111  0.7777777777777778 0.7777777777777778 0.1111111111111111  0.8888888888888888 0.7777777777777778 0.1111111111111111  1 0.7777777777777778 0.1111111111111111  0 0.8888888888888888 0.1111111111111111  0.1111111111111111 0.8888888888888888 0.1111111111111111  0.2222222222222222 0.8888888888888888 0.1111111111111111  0.3333333333333333 0.8888888888888888 0.1111111111111111  0.4444444444444444 0.8888888888888888 0.1111111111111111  0.5555555555555556 0.8888888888888888 0.1111111111111111  0.6666666666666666 0.8888888888888888 0.1111111111111111  0.7777777777777778 0.8888888888888888 0.1111111111111111  0.8888888888888888 0.8888888888888888 0.1111111111111111  1 0.8888888888888888 0.1111111111111111  0 1 0.1111111111111111  0.1111111111111111 1 0.1111111111111111  0.2222222222222222 1 0.1111111111111111  0.3333333333333333 1 0.1111111111111111  0.4444444444444444 1 0.1111111111111111  0.5555555555555556 1 0.1111111111111111  0.6666666666666666 1 0.1111111111111111  0.7777777777777778 1 0.1111111111111111  0.8888888888888888 1 0.1111111111111111  1 1 0.1111111111111111  0 0 0.2222222222222222  0.1111111111111111 0 0.2222222222222222  0.2222222222222222 0 0.2222222222222222  0.3333333333333333 0 0.2222222222222222  0.4444444444444444 0 0.2222222222222222  0.5555555555555556 0 0.2222222222222222  0.6666666666666666 0 0.2222222222222222  0.7777777777777778 0 0.2222222222222222  0.8888888888888888 0 0.2222222222222222  1 0 0.2222222222222222  0 0.1111111111111111 0.2222222222222222  0.1111111111111111 0.1111111111111111 0.2222222222222222  0.2222222222222222 0.1111111111111111 0.2222222222222222  0.3333333333333333 0.1111111111111111 0.2222222222222222  0.4444444444444444 0.1111111111111111 0.2222222222222222  0.5555555555555556 0.1111111111111111 0.2222222222222222  0.6666666666666666 0.1111111111111111 0.2222222222222222  0.7777777777777778 0.1111111111111111 0.2222222222222222  0.8888888888888888 0.1111111111111111 0.2222222222222222  1 0.1111111111111111 0.2222222222222222  0 0.2222222222222222 0.2222222222222222  0.1111111111111111 0.2222222222222222 0.2222222222222222  0.2222222222222222 0.2222222222222222 0.2222222222222222  0.3333333333333333 0.2222222222222222 0.2222222222222222  0.4444444444444444 0.2222222222222222 0.2222222222222222  0.5555555555555556 0.2222222222222222 0.22222
[...]
<PointData  Scalars="f_5"> 
<DataArray  type="Float64"  Name="f_5"  format="ascii">-9.1598406434059143e-03  -3.7638492882251740e-02  -7.4977077543735504e-02  -1.1778966709971428e-01  -1.6336642205715179e-01  -2.0945078879594803e-01  -2.5441375747323036e-01  -2.9729367792606354e-01  -3.3761981874704361e-01  -3.5702955722808838e-01  -9.5319747924804688e-03  -3.8105167448520660e-02  -7.5342856347560883e-02  -1.1802858859300613e-01  -1.6346439346671104e-01  -2.0937388390302658e-01  -2.5414394959807396e-01  -2.9685091227293015e-01  -3.3706402033567429e-01  -3.5642077028751373e-01  -9.7439736127853394e-03  -3.8368739187717438e-02  -7.5589805841445923e-02  -1.1821574345231056e-01  -1.6352951526641846e-01  -2.0926816761493683e-01  -2.5386115163564682e-01  -2.9642703384160995e-01  -3.3656446635723114e-01  -3.5587660223245621e-01  -9.8619908094406128e-03  -3.8523763418197632e-02  -7.5753226876258850e-02  -1.1833820492029190e-01  -1.6353744268417358e-01  -2.0912072435021400e-01  -2.5356838107109070e-01  -2.9603507369756699e-01  -3.3613543957471848e-01  -3.5541191697120667e-01  -9.8833888769149780e-03  -3.8556262850761414e-02  -7.5786776840686798e-02  -1.1833858489990234e-01  -1.6344362124800682e-01  -2.0890934765338898e-01  -2.5326247513294220e-01  -2.9568208009004593e-01  -3.3578587323427200e-01  -3.5503606498241425e-01  -9.7800567746162415e-03  -3.8413688540458679e-02  -7.5623743236064911e-02  -1.1815634742379189e-01  -1.6320774704217911e-01  -2.0861517265439034e-01  -2.5293964520096779e-01  -2.9537161439657211e-01  -3.3552071452140808e-01  -3.5475463420152664e-01  -9.5217451453208923e-03  -3.8050279021263123e-02  -7.5215406715869904e-02  -1.1775272339582443e-01  -1.6280718520283699e-01  -2.0822915807366371e-01  -2.5259845703840256e-01  -2.9510476440191269e-01  -3.3534078299999237e-01  -3.5456971079111099e-01  -9.0818107128143311e-03  -3.7448458373546600e-02  -7.4548773467540741e-02  -1.1712129041552544e-01  -1.6224216297268867e-01  -2.0775430276989937e-01  -2.5224088504910469e-01  -2.9488068819046021e-01  -3.3524252474308014e-01  -3.5447913408279419e-01  -8.4312930703163147e-03  -3.6619663238525391e-02  -7.3647245764732361e-02  -1.1628637090325356e-01  -1.6153375431895256e-01  -2.0720469206571579e-01  -2.5187228620052338e-01  -2.9469701647758484e-01  -3.3521825075149536e-01  -3.5447596758604050e-01  -8.4312930703163147e-03  -3.6619663238525391e-02  -7.3647245764732361e-02  -1.1628637090325356e-01  -1.6153375431895256e-01  -2.0720469206571579e-01  -2.5187228620052338e-01  -2.9469701647758484e-01  -3.3521825075149536e-01  -3.4307078272104263e-01  -9.0058967471122742e-03  -3.8990885019302368e-02  -7.8353434801101685e-02  -1.2284078821539879e-01  -1.6956014186143875e-01  -2.1643752977252007e-01  -2.6193852350115776e-01  -3.0507185310125351e-01  -3.4538184851408005e-01  -3.6469255387783051e-01  -9.1098695993423462e-03  -3.9287097752094269e-02  -7.8625790774822235e-02  -1.2305618077516556e-01  -1.6967557370662689e-01  -2.1640248969197273e-01  -2.6173804327845573e-01  -3.0472464859485626e-01  -3.4492579847574234e-01  -3.6419176310300827e-01  -9.1117024421691895e-03  -3.9403699338436127e-02  -7.8778445720672607e-02  -1.2319064512848854e-01  -1.6971290856599808e-01  -2.1628914400935173e-01  -2.6147613674402237e-01  -3.0435161292552948e-01  -3.4448828548192978e-01  -3.6371933668851852e-01  -9.1442018747329712e-03  -3.9489902555942535e-02  -7.8890085220336914e-02  -1.2326850369572639e-01  -1.6968173906207085e-01  -2.1611445397138596e-01  -2.6117914542555809e-01  -3.0398093163967133e-01  -3.4409121423959732e-01  -3.6329586058855057e-01  -9.2079639434814453e-03  -3.9541490375995636e-02  -7.8926108777523041e-02  -1.2324877083301544e-01  -1.6955769434571266e-01  -2.1587627381086349e-01  -2.6086037233471870e-01  -3.0363067984580994e-01  -3.4374864399433136e-01  -3.6293415725231171e-01  -9.2324540019035339e-03  -3.9482161402702332e-02  -7.8808739781379700e-02  -1.2307119742035866e-01  -1.6930754855275154e-01  -2.1556543186306953e-01  -2.6052499935030937e-01  -3.0331058055162430e-01  -3.4346776455640793e-01  -3.6264117062091827e-01  -9.1174393892288208e-03  -3.9221428334712982e-02  -7.8462935984134674e-02  -1.2268482521176338e-01  -1.6890473291277885e-01  -2.1517286449670792e-01  -2.6017319038510323e-01  -3.0302314460277557e-01  -3.4324896335601807e-01  -3.6241822689771652e-01  -8.7577775120735168e-03  -3.8686633110046387e-02  -7.7840141952037811e-02  -1.2206170707941055e-01  -1.6833608597517014e-01  -2.1469304710626602e-01  -2.5980172678828239e-01  -3.0276414006948471e-01  -3.4308528155088425e-01  -3.6226028949022293e-01  -8.0568119883537292e-03  -3.7833742797374725e-02  -7.6923839747905731e-02  -1.2119913473725319e-01  -1.6760319843888283e-01  -2.1412555500864983e-01  -2.5940538570284843e-01  -3.0252350866794586e-01  -3.4296295791864395e-01  -3.6215548962354660e-01  -8.0568119883537292e-03  -3.7833742797374725e-02  -7.6923839747905731e-02  -1.2119913473725319e-01  -1.6760319843888283e-01  -2.1412555500864983e-01  -2.5940538570284843e-01  -3.0252350866794586e-01  -3.4296295791864395e-01  -3.5055118054151535e-01  -8.2033947110176086e-03  -3.9946623146533966e-02  -8.0606587231159210e-02  -1.2637159600853920e-01  -1.7438419163227081e-01  -2.2250422462821007e-01  -2.6913011074066162e-01  -3.1320104002952576e-01  -3.5413921624422073e-01  -3.7356766313314438e-01  -8.2777962088584900e-03  -4.0246292948722839e-02  -8.0900266766548157e-02  -1.2661967799067497e-01  -1.7454497143626213e-01  -2.2253320738673210e-01  -2.6902377605438232e-01  -3.1298159062862396e-01  -3.5382065176963806e-01  -3.7321370095014572e-01  -8.2194432616233826e-03  -4.0329344570636749e-02  -8.1039093434810638e-02  -1.2674772366881371e-01  -1.7458350956439972e-01  -2.2243737056851387e-01  -2.6880881190299988e-01  -3.1268917024135590e-01  -3.5347726941108704e-01  -3.7284647673368454e-01  -8.2349553704261780e-03  -4.0397100150585175e-02  -8.1139907240867615e-02  -1.2681147083640099e-01  -1.7453723400831223e-01  -2.2225748747587204e-01  -2.6852963864803314e-01  -3.1236319988965988e-01  -3.5313606262207031e-01  -3.7249049544334412e-01  -8.3466172218322754e-03  -4.0465079247951508e-02  -8.1183902919292450e-02  -1.2678575888276100e-01  -1.7439845576882362e-01  -2.2200721129775047e-01  -2.6821196079254150e-01  -3.1202940642833710e-01  -3.5281377285718918e-01  -3.7216011434793472e-01  -8.4668174386024475e-03  -4.0451191365718842e-02  -8.1091143190860748e-02  -1.2661230564117432e-01  -1.7413957044482231e-01  -2.2168466448783875e-01  -2.6786775141954422e-01  -3.1170195341110229e-01  -3.5251829028129578e-01  -3.7186182290315628e-01  -8.4551870822906494e-03  -4.0242306888103485e-02  -8.0771446228027344e-02  -1.2623087316751480e-01  -1.7372955009341240e-01  -2.2127975150942802e-01  -2.6749793440103531e-01  -3.1138390302658081e-01  -3.5224843770265579e-01  -3.7159463018178940e-01  -8.1591531634330750e-03  -3.9733991026878357e-02  -8.0152943730354309e-02  -1.2559587135910988e-01  -1.7314269393682480e-01  -2.2077891230583191e-01  -2.6709451526403427e-01  -3.1106807291507721e-01  -3.5199397802352905e-01  -3.7134987115859985e-01  -7.4405968189239502e-03  -3.8848482072353363e-02  -7.9192392528057098e-02  -1.2468230351805687e-01  -1.7236239463090897e-01  -2.2016793861985207e-01  -2.6664301753044128e-01  -3.1073830276727676e-01  -3.5173596441745758e-01  -3.7111076712608337e-01  -7.4405968189239502e-03  -3.8848482072353363e-02  -7.9192392528057098e-02  -1.2468230351805687e-01  -1.7236239463090897e-01  -2.2016793861985207e-01  -2.6664301753044128e-01  -3.1073830276727676e-01  -3.5173596441745758e-01  -3.5899474471807480e-01  -8.7691992521286011e-03  -4.2276017367839813e-02  -8.4066517651081085e-02  -1.3094517216086388e-01  -1.8012133240699768e-01  -2.2942870482802391e-01  -2.7728227525949478e-01  -3.2262933999300003e-01  -3.6472063511610031e-01  -3.8451363146305084e-01  -8.8239386677742004e-03  -4.2570486664772034e-02  -8.4382370114326477e-02  -1.3124025240540504e-01  -1.8035232648253441e-01  -2.2955101355910301e-01  -2.7729312330484390e-01  -3.2255081832408905e-01  -3.6455056071281433e-01  -3.8431854546070099e-01  -8.7140426039695740e-03  -4.2615644633769989e-02  -8.4505088627338409e-02  -1.3137300312519073e-01  -1.8041742593050003e-01  -2.2950575128197670e-01  -2.7715367078781128e-01  -3.2235647737979889e-01  -3.6431249231100082e-01  -3.8406803458929062e-01  -8.7137594819068909e-03  -4.2660266160964966e-02  -8.4586650133132935e-02  -1.3142596557736397e-01  -1.8037490174174309e-01  -2.2934916242957115e-01  -2.7691853046417236e-01  -3.2209119200706482e-01  -3.6403504014015198e-01  -3.8378787040710449e-01  -8.8635906577110291e-03  -4.2738661170005798e-02  -8.4625303745269775e-02  -1.3138914853334427e-01  -1.8023001030087471e-01  -2.2910512611269951e-01  -2.7662029117345810e-01  -3.2178395241498947e-01  -3.6373463273048401e-01  -3.8349162042140961e-01  -9.0575367212295532e-03  -4.2763814330101013e-02  -8.4541961550712585e-02  -1.3120789453387260e-01  -1.7995991930365562e-01  -2.2877620905637741e-01  -2.7627409249544144e-01  -3.2145001739263535e-01  -3.6341762542724609e-01  -3.8318318873643875e-01  -9.1165974736213684e-03  -4.2600594460964203e-02  -8.4234043955802917e-02  -1.3081477582454681e-01  -1.7952992022037506e-01  -2.2835099324584007e-01  -2.7588036656379700e-01  -3.2109171152114868e-01  -3.6308055371046066e-01  -3.8285832107067108e-01  -8.8443607091903687e-03  -4.2112477123737335e-02  -8.3607375621795654e-02  -1.3014852628111839e-01  -1.7890369519591331e-01  -2.2780927270650864e-01  -2.7542725950479507e-01  -3.2069921493530273e-01  -3.6270999908447266e-01  -3.8250434398651123e-01  -8.0672875046730042e-03  -4.1187055408954620e-02  -8.2591511309146881e-02  -1.2916300073266029e-01  -1.7804881185293198e-01  -2.2712593153119087e-01  -2.7489314973354340e-01  -3.2025180011987686e-01  -3.6228320002555847e-01  -3.8210035115480423e-01  -8.0672875046730042e-03  -4.1187055408954620e-02  -8.2591511309146881e-02  -1.2916300073266029e-01  -1.7804881185293198e-01  -2.2712593153119087e-01  -2.7489314973354340e-01  -3.2025180011987686e-01  -3.6228320002555847e-01  -3.6914952099323273e-01  -9.2536211013793945e-03  -4.5516505837440491e-02  -8.9198879897594452e-02  -1.3752491399645805e-01  -1.8793443590402603e-01  -2.3838478326797485e-01  -2.8742018342018127e-01  -3.3414036035537720e-01  -3.7779985368251801e-01  -3.9826160669326782e-01  -9.3172118067741394e-03  -4.5825704932212830e-02  -8.9562259614467621e-02  -1.3790233060717583e-01  -1.8827602639794350e-01  -2.3863346874713898e-01  -2.8756137937307358e-01  -3.3419466763734818e-01  -3.7776601314544678e-01  -3.9821612089872360e-01  -9.1649740934371948e-03  -4.5840948820114136e-02  -8.9685365557670593e-02  -1.3806863501667976e-01  -1.8840523809194565e-01  -2.3867344111204147e-01  -2.8751686215400696e-01  -3.3409964293241501e-01  -3.7762755155563354e-01  -3.9807838201522827e-01  -9.1380551457405090e-03  -4.5859530568122864e-02  -8.9753642678260803e-02  -1.3812927529215813e-01  -1.8839497491717339e-01  -2.3856890574097633e-01  -2.8734418749809265e-01  -3.3389926701784134e-01  -3.7740964442491531e-01  -3.9787127822637558e-01  -9.2994570732116699e-03  -4.5937485992908478e-02  -8.9784257113933563e-02  -1.3808899000287056e-01  -1.8826026469469070e-01  -2.3834864422678947e-01  -2.8707668930292130e-01  -3.3362012356519699e-01  -3.7712448835372925e-01  -3.9760380238294601e-01  -9.5301866531372070e-03  -4.5985758304595947e-02  -8.9701846241950989e-02  -1.3789799064397812e-01  -1.8798201903700829e-01  -2.3801675438880920e-01  -2.8672850877046585e-01  -3.3327447623014450e-01  -3.7677396833896637e-01  -3.9727478474378586e-01  -9.6176490187644958e-03  -4.5848265290260315e-02  -8.9393354952335358e-02  -1.3748391345143318e-01  -1.8752303719520569e-01  -2.3756018653512001e-01  -2.8629801422357559e-01  -3.3286186307668686e-01  -3.7635119259357452e-01  -3.9687536656856537e-01  -9.3275830149650574e-03  -4.5356050133705139e-02  -8.8742882013320923e-02  -1.3677178695797920e-01  -1.8683877587318420e-01  -2.3695388808846474e-01  -2.8577008098363876e-01  -3.3236966282129288e-01  -3.7584035098552704e-01  -3.9638966321945190e-01  -8.4576085209846497e-03  -4.4361591339111328e-02  -8.7651774287223816e-02  -1.3569560274481773e-01  -1.8588413670659065e-01  -2.3616509139537811e-01  -2.8511852771043777e-01  -3.3177468925714493e-01  -3.7521722167730331e-01  -3.9579471200704575e-01  -8.4576085209846497e-03  -4.4361591339111328e-02  -8.7651774287223816e-02  -1.3569560274481773e-01  -1.8588413670659065e-01  -2.3616509139537811e-01  -2.8511852771043777e-01  -3.3177468925714493e-01  -3.7521722167730331e-01  -3.8170000910758972e-01  -9.5226913690567017e-03  -4.9943789839744568e-02  -9.6532106399536133e-02  -1.4682321250438690e-01  -1.9868722930550575e-01  -2.5034850090742111e-01  -3.0049788951873779e-01  -3.4844604134559631e-01  -3.9375223964452744e-01  -4.1512074321508408e-01  -9.6400082111358643e-03  -5.0302788615226746e-02  -9.6972078084945679e-02  -1.4730369672179222e-01  -1.9915312528610229e-01  -2.5072907656431198e-01  -3.0076040327548981e-01  -3.4860710799694061e-01  -3.9382687956094742e-01  -4.1520003229379654e-01  -9.4681903719902039e-03  -5.0310954451560974e-02  -9.7121071070432663e-02  -1.4752615988254547e-01  -1.9936491176486015e-01  -2.5086560845375061e-01  -3.0080943554639816e-01  -3.4859687089920044e-01  -3.9377326518297195e-01  -4.1516319662332535e-01  -9.4088166952133179e-03  -5.0311535596847534e-02  -9.7194187343120575e-02  -1.4761399477720261e-01  -1.9940413534641266e-01  -2.5082380697131157e-01  -3.0069930851459503e-01  -3.4845300763845444e-01  -3.9360801875591278e-01  -4.1502576321363449e-01  -9.5499679446220398e-03  -5.0383865833282471e-02  -9.7227439284324646e-02  -1.4758484065532684e-01  -1.9929175823926926e-01  -2.5063232704997063e-01  -3.0045878887176514e-01  -3.4819439798593521e-01  -3.9333389699459076e-01  -4.1478694230318069e-01  -9.7683295607566833e-03  -5.0440438091754913e-02  -9.7151134163141251e-02  -1.4739394187927246e-01  -1.9901039823889732e-01  -2.5029349699616432e-01  -3.0009725689888000e-01  -3.4782620519399643e-01  -3.9294503629207611e-01  -4.1443683207035065e-01  -9.8304823040962219e-03  -5.0308629870414734e-02  -9.6843972802162170e-02  -1.4696491882205009e-01  -1.9852017238736153e-01  -2.4979123845696449e-01  -2.9960898309946060e-01  -3.4734281897544861e-01  -3.9242951571941376e-01  -4.1396031528711319e-01  -9.4778239727020264e-03  -4.9791350960731506e-02  -9.6170015633106232e-02  -1.4621065184473991e-01  -1.9776973500847816e-01  -2.4909669905900955e-01  -2.9897587746381760e-01  -3.4672906994819641e-01  -3.9177010208368301e-01  -4.1333895176649094e-01  -8.4914043545722961e-03  -4.8709928989410400e-02  -9.5003478229045868e-02  -1.4504683017730713e-01  -1.9670355319976807e-01  -2.4817218631505966e-01  -2.9816969484090805e-01  -3.4596120566129684e-01  -3.9094398170709610e-01  -4.1255065053701401e-01  -8.4914043545722961e-03  -4.8709928989410400e-02  -9.5003478229045868e-02  -1.4504683017730713e-01  -1.9670355319976807e-01  -2.4817218631505966e-01  -2.9816969484090805e-01  -3.4596120566129684e-01  -3.9094398170709610e-01  -3.9710579812526703e-01  -1.0347746312618256e-02  -5.6584134697914124e-02  -1.0706397891044617e-01  -1.5973296388983727e-01  -2.1311423555016518e-01  -2.6590637117624283e-01  -3.1701422482728958e-01  -3.6595105379819870e-01  -4.1272462904453278e-01  -4.3509349226951599e-01  -1.0511778295040131e-02  -5.7015456259250641e-02  -1.0758833214640617e-01  -1.6029752790927887e-01  -2.1366730332374573e-01  -2.6637788116931915e-01  -3.1735895574092865e-01  -3.6617700010538101e-01  -4.1286543011665344e-01  -4.3525427579879761e-01  -1.0334752500057220e-02  -5.7044148445129395e-02  -1.0777797922492027e-01  -1.6057030856609344e-01  -2.1394164860248566e-01  -2.6658672466874123e-01  -3.1747663766145706e-01  -3.6622390896081924e-01  -4.1287131607532501e-01  -4.3529299646615982e-01  -1.0258108377456665e-02  -5.7047002017498016e-02  -1.0786942392587662e-01  -1.6068720445036888e-01  -2.1402273699641228e-01  -2.6659546792507172e-01  -3.1741426885128021e-01  -3.6612000316381454e-01  -4.1274785995483398e-01  -4.3521578609943390e-01  -1.0385088622570038e-02  -5.7122662663459778e-02  -1.0791496932506561e-01  -1.6067555174231529e-01  -2.1393327787518501e-01  -2.6642784476280212e-01  -3.1719182431697845e-01  -3.6587309837341309e-01  -4.1248520463705063e-01  -4.3500901758670807e-01  -1.0590344667434692e-02  -5.7187430560588837e-02  -1.0785134509205818e-01  -1.6049410030245781e-01  -2.1365427970886230e-01  -2.6608061417937279e-01  -3.1681043654680252e-01  -3.6547840386629105e-01  -4.1206682473421097e-01  -4.3465063720941544e-01  -1.0631047189235687e-02  -5.7058542966842651e-02  -1.0755137354135513e-01  -1.6006213054060936e-01  -2.1314101666212082e-01  -2.6553216576576233e-01  -3.1625828891992569e-01  -3.6492370814085007e-01  -4.1147468239068985e-01  -4.3411765992641449e-01  -1.0238870978355408e-02  -5.6518442928791046e-02  -1.0686205327510834e-01  -1.5928046405315399e-01  -2.1233424544334412e-01  -2.6474875584244728e-01  -3.1551412492990494e-01  -3.6419155448675156e-01  -4.1069079935550690e-01  -4.3338917195796967e-01  -9.1898068785667419e-03  -5.5364392697811127e-02  -1.0563325509428978e-01  -1.5804722160100937e-01  -2.1116844564676285e-01  -2.6368856430053711e-01  -3.1454911828041077e-01  -3.6325956135988235e-01  -4.0969628840684891e-01  -4.3244638293981552e-01  -9.1898068785667419e-03  -5.5364392697811127e-02  -1.0563325509428978e-01  -1.5804722160100937e-01  -2.1116844564676285e-01  -2.6368856430053711e-01  -3.1454911828041077e-01  -3.6325956135988235e-01  -4.0969628840684891e-01  -4.1558819264173508e-01  -1.4595471322536469e-02  -6.7607797682285309e-02  -1.2237332761287689e-01  -1.7734682187438011e-01  -2.3186625167727470e-01  -2.8533634543418884e-01  -3.3702924102544785e-01  -3.8664081692695618e-01  -4.3453611433506012e-01  -4.5780139416456223e-01  -1.4771439135074615e-02  -6.8150289356708527e-02  -1.2298596277832985e-01  -1.7795752361416817e-01  -2.3244233801960945e-01  -2.8582978248596191e-01  -3.3739707618951797e-01  -3.8688200712203979e-01  -4.3469598144292831e-01  -4.5799387246370316e-01  -1.4590963721275330e-02  -6.8243533372879028e-02  -1.2322916090488434e-01  -1.7826089262962341e-01  -2.3273927345871925e-01  -2.8606635332107544e-01  -3.3754438906908035e-01  -3.8695169240236282e-01  -4.3472887575626373e-01  -4.5807264000177383e-01  -1.4516584575176239e-02  -6.8278051912784576e-02  -1.2334722653031349e-01  -1.7839783802628517e-01  -2.3284232243895531e-01  -2.8610309958457947e-01  -3.3750991523265839e-01  -3.8686936348676682e-01  -4.3463110923767090e-01  -4.5803645998239517e-01  -1.4652714133262634e-02  -6.8364508450031281e-02  -1.2340314313769341e-01  -1.7840090021491051e-01  -2.3277227208018303e-01  -2.8595615923404694e-01  -3.3730310201644897e-01  -3.8663156330585480e-01  -4.3438086658716202e-01  -4.5785983651876450e-01  -1.4869190752506256e-02  -6.8425424396991730e-02  -1.2333995476365089e-01  -1.7823007330298424e-01  -2.3250559344887733e-01  -2.8561389446258545e-01  -3.3691529929637909e-01  -3.8622327148914337e-01  -4.3395090848207474e-01  -4.5750857889652252e-01  -1.4917977154254913e-02  -6.8275816738605499e-02  -1.2302773445844650e-01  -1.7779933288693428e-01  -2.3199014738202095e-01  -2.8504680097103119e-01  -3.3632727712392807e-01  -3.8562538474798203e-01  -4.3331704288721085e-01  -4.5695117115974426e-01  -1.4525473117828369e-02  -6.7687071859836578e-02  -1.2230094149708748e-01  -1.7699772492051125e-01  -2.3115699738264084e-01  -2.8421438485383987e-01  -3.3551395684480667e-01  -3.8481857627630234e-01  -4.3246098607778549e-01  -4.5616438239812851e-01  -1.3461396098136902e-02  -6.6439211368560791e-02  -1.2098945677280426e-01  -1.7570634931325912e-01  -2.2992923855781555e-01  -2.8306964039802551e-01  -3.3444631099700928e-01  -3.8378351181745529e-01  -4.3136952072381973e-01  -4.5513369143009186e-01  -1.3461396098136902e-02  -6.6439211368560791e-02  -1.2098945677280426e-01  -1.7570634931325912e-01  -2.2992923855781555e-01  -2.8306964039802551e-01  -3.34446310997009