<?xml version="1.0"?>
<VTKFile type="UnstructuredGrid"  version="0.1"  >
<UnstructuredGrid>
<Piece  NumberOfPoints="1000" NumberOfCells="4374">
<Points>
<DataArray  type="Float64"  NumberOfComponents="3"  format="ascii">0 0 0  0.1111111111111111 0 0  0.2222222222222222 0 0  0.3333333333333333 0 0  0.4444444444444444 0 0  0.5555555555555556 0 0  0.6666666666666666 0 0  0.7777777777777778 0 0  0.8888888888888888 0 0  1 0 0  0 0.1111111111111111 0  0.1111111111111111 0.1111111111111111 0  0.2222222222222222 0.1111111111111111 0  0.3333333333333333 0.1111111111111111 0  0.4444444444444444 0.1111111111111111 0  0.5555555555555556 0.1111111111111111 0  0.6666666666666666 0.1111111111111111 0  0.7777777777777778 0.1111111111111111 0  0.8888888888888888 0.1111111111111111 0  1 0.1111111111111111 0  0 0.2222222222222222 0  0.1111111111111111 0.2222222222222222 0  0.2222222222222222 0.2222222222222222 0  0.3333333333333333 0.2222222222222222 0  0.4444444444444444 0.2222222222222222 0  0.5555555555555556 0.2222222222222222 0  0.6666666666666666 0.2222222222222222 0  0.7777777777777778 0.2222222222222222 0  0.8888888888888888 0.2222222222222222 0  1 0.2222222222222222 0  0 0.3333333333333333 0  0.1111111111111111 0.3333333333333333 0  0.2222222222222222 0.3333333333333333 0  0.3333333333333333 0.3333333333333333 0  0.4444444444444444 0.3333333333333333 0  0.5555555555555556 0.3333333333333333 0  0.6666666666666666 0.3333333333333333 0  0.7777777777777778 0.3333333333333333 0  0.8888888888888888 0.3333333333333333 0  1 0.3333333333333333 0  0 0.4444444444444444 0  0.1111111111111111 0.4444444444444444 0  0.2222222222222222 0.4444444444444444 0  0.3333333333333333 0.4444444444444444 0  0.4444444444444444 0.4444444444444444 0  0.5555555555555556 0.4444444444444444 0  0.6666666666666666 0.4444444444444444 0  0.7777777777777778 0.4444444444444444 0  0.8888888888888888 0.4444444444444444 0  1 0.4444444444444444 0  0 0.5555555555555556 0  0.1111111111111111 0.5555555555555556 0  0.2222222222222222 0.5555555555555556 0  0.3333333333333333 0.5555555555555556 0  0.4444444444444444 0.5555555555555556 0  0.5555555555555556 0.5555555555555556 0  0.6666666666666666 0.5555555555555556 0  0.7777777777777778 0.5555555555555556 0  0.8888888888888888 0.5555555555555556 0  1 0.5555555555555556 0  0 0.6666666666666666 0  0.1111111111111111 0.6666666666666666 0  0.2222222222222222 0.6666666666666666 0  0.3333333333333333 0.6666666666666666 0  0.4444444444444444 0.6666666666666666 0  0.5555555555555556 0.6666666666666666 0  0.6666666666666666 0.6666666666666666 0  0.7777777777777778 0.6666666666666666 0  0.8888888888888888 0.6666666666666666 0  1 0.6666666666666666 0  0 0.7777777777777778 0  0.1111111111111111 0.7777777777777778 0  0.2222222222222222 0.7777777777777778 0  0.3333333333333333 0.7777777777777778 0  0.4444444444444444 0.7777777777777778 0  0.5555555555555556 0.7777777777777778 0  0.6666666666666666 0.7777777777777778 0  0.7777777777777778 0.7777777777777778 0  0.8888888888888888 0.7777777777777778 0  1 0.7777777777777778 0  0 0.8888888888888888 0  0.1111111111111111 0.8888888888888888 0  0.2222222222222222 0.8888888888888888 0  0.3333333333333333 0.8888888888888888 0  0.4444444444444444 0.8888888888888888 0  0.5555555555555556 0.8888888888888888 0  0.6666666666666666 0.8888888888888888 0  0.7777777777777778 0.8888888888888888 0  0.8888888888888888 0.8888888888888888 0  1 0.8888888888888888 0  0 1 0  0.1111111111111111 1 0  0.2222222222222222 1 0  0.3333333333333333 1 0  0.4444444444444444 1 0  0.5555555555555556 1 0  0.6666666666666666 1 0  0.7777777777777778 1 0  0.8888888888888888 1 0  1 1 0  0 0 0.1111111111111111  0.1111111111111111 0 0.1111111111111111  0.2222222222222222 0 0.1111111111111111  0.3333333333333333 0 0.1111111111111111  0.4444444444444444 0 0.1111111111111111  0.5555555555555556 0 0.1111111111111111  0.6666666666666666 0 0.1111111111111111  0.7777777777777778 0 0.1111111111111111  0.8888888888888888 0 0.1111111111111111  1 0 0.1111111111111111  0 0.1111111111111111 0.1111111111111111  0.1111111111111111 0.1111111111111111 0.1111111111111111  0.2222222222222222 0.1111111111111111 0.1111111111111111  0.3333333333333333 0.1111111111111111 0.1111111111111111  0.4444444444444444 0.1111111111111111 0.1111111111111111  0.5555555555555556 0.1111111111111111 0.1111111111111111  0.6666666666666666 0.1111111111111111 0.1111111111111111  0.7777777777777778 0.1111111111111111 0.1111111111111111  0.8888888888888888 0.1111111111111111 0.1111111111111111  1 0.1111111111111111 0.1111111111111111  0 0.2222222222222222 0.1111111111111111  0.1111111111111111 0.2222222222222222 0.1111111111111111  0.2222222222222222 0.2222222222222222 0.1111111111111111  0.3333333333333333 0.2222222222222222 0.1111111111111111  0.4444444444444444 0.2222222222222222 0.1111111111111111  0.5555555555555556 0.2222222222222222 0.1111111111111111  0.6666666666666666 0.2222222222222222 0.1111111111111111  0.7777777777777778 0.2222222222222222 0.1111111111111111  0.8888888888888888 0.2222222222222222 0.1111111111111111  1 0.2222222222222222 0.1111111111111111  0 0.3333333333333333 0.1111111111111111  0.1111111111111111 0.3333333333333333 0.1111111111111111  0.2222222222222222 0.3333333333333333 0.1111111111111111  0.3333333333333333 0.3333333333333333 0.1111111111111111  0.4444444444444444 0.3333333333333333 0.1111111111111111  0.5555555555555556 0.3333333333333333 0.1111111111111111  0.6666666666666666 0.3333333333333333 0.1111111111111111  0.7777777777777778 0.3333333333333333 0.1111111111111111  0.8888888888888888 0.3333333333333333 0.1111111111111111  1 0.3333333333333333 0.1111111111111111  0 0.4444444444444444 0.1111111111111111  0.1111111111111111 0.4444444444444444 0.1111111111111111  0.2222222222222222 0.4444444444444444 0.1111111111111111  0.3333333333333333 0.4444444444444444 0.1111111111111111  0.4444444444444444 0.4444444444444444 0.1111111111111111  0.5555555555555556 0.4444444444444444 0.1111111111111111  0.6666666666666666 0.4444444444444444 0.1111111111111111  0.7777777777777778 0.4444444444444444 0.1111111111111111  0.8888888888888888 0.4444444444444444 0.1111111111111111  1 0.4444444444444444 0.1111111111111111  0 0.5555555555555556 0.1111111111111111  0.1111111111111111 0.5555555555555556 0.1111111111111111  0.2222222222222222 0.5555555555555556 0.1111111111111111  0.3333333333333333 0.5555555555555556 0.1111111111111111  0.4444444444444444 0.5555555555555556 0.1111111111111111  0.5555555555555556 0.5555555555555556 0.1111111111111111  0.6666666666666666 0.5555555555555556 0.1111111111111111  0.7777777777777778 0.5555555555555556 0.1111111111111111  0.8888888888888888 0.5555555555555556 0.1111111111111111  1 0.5555555555555556 0.1111111111111111  0 0.6666666666666666 0.1111111111111111  0.1111111111111111 0.6666666666666666 0.1111111111111111  0.2222222222222222 0.6666666666666666 0.1111111111111111  0.3333333333333333 0.6666666666666666 0.1111111111111111  0.4444444444444444 0.6666666666666666 0.1111111111111111  0.5555555555555556 0.6666666666666666 0.1111111111111111  0.6666666666666666 0.6666666666666666 0.1111111111111111  0.7777777777777778 0.6666666666666666 0.1111111111111111  0.8888888888888888 0.6666666666666666 0.1111111111111111  1 0.6666666666666666 0.1111111111111111  0 0.7777777777777778 0.1111111111111111  0.1111111111111111 0.7777777777777778 0.1111111111111111  0.2222222222222222 0.7777777777777778 0.1111111111111111  0.3333333333333333 0.7777777777777778 0.1111111111111111  0.4444444444444444 0.7777777777777778 0.1111111111111111  0.5555555555555556 0.7777777777777778 0.1111111111111111  0.6666666666666666 0.7777777777777778 0.1111111111111111  0.7777777777777778 0.7777777777777778 0.1111111111111111  0.8888888888888888 0.7777777777777778 0.1111111111111111  1 0.7777777777777778 0.1111111111111111  0 0.8888888888888888 0.1111111111111111  0.1111111111111111 0.8888888888888888 0.1111111111111111  0.2222222222222222 0.8888888888888888 0.1111111111111111  0.3333333333333333 0.8888888888888888 0.1111111111111111  0.4444444444444444 0.8888888888888888 0.1111111111111111  0.5555555555555556 0.8888888888888888 0.1111111111111111  0.6666666666666666 0.8888888888888888 0.1111111111111111  0.7777777777777778 0.8888888888888888 0.1111111111111111  0.8888888888888888 0.8888888888888888 0.1111111111111111  1 0.8888888888888888 0.1111111111111111  0 1 0.1111111111111111  0.1111111111111111 1 0.1111111111111111  0.2222222222222222 1 0.1111111111111111  0.3333333333333333 1 0.1111111111111111  0.4444444444444444 1 0.1111111111111111  0.5555555555555556 1 0.1111111111111111  0.6666666666666666 1 0.1111111111111111  0.7777777777777778 1 0.1111111111111111  0.8888888888888888 1 0.1111111111111111  1 1 0.1111111111111111  0 0 0.2222222222222222  0.1111111111111111 0 0.2222222222222222  0.2222222222222222 0 0.2222222222222222  0.3333333333333333 0 0.2222222222222222  0.4444444444444444 0 0.2222222222222222  0.5555555555555556 0 0.2222222222222222  0.6666666666666666 0 0.2222222222222222  0.7777777777777778 0 0.2222222222222222  0.8888888888888888 0 0.2222222222222222  1 0 0.2222222222222222  0 0.1111111111111111 0.2222222222222222  0.1111111111111111 0.1111111111111111 0.2222222222222222  0.2222222222222222 0.1111111111111111 0.2222222222222222  0.3333333333333333 0.1111111111111111 0.2222222222222222  0.4444444444444444 0.1111111111111111 0.2222222222222222  0.5555555555555556 0.1111111111111111 0.2222222222222222  0.6666666666666666 0.1111111111111111 0.2222222222222222  0.7777777777777778 0.1111111111111111 0.2222222222222222  0.8888888888888888 0.1111111111111111 0.2222222222222222  1 0.1111111111111111 0.2222222222222222  0 0.2222222222222222 0.2222222222222222  0.1111111111111111 0.2222222222222222 0.2222222222222222  0.2222222222222222 0.2222222222222222 0.2222222222222222  0.3333333333333333 0.2222222222222222 0.2222222222222222  0.4444444444444444 0.2222222222222222 0.2222222222222222  0.5555555555555556 0.2222222222222222 0.22222
[...]
<PointData  Scalars="f_8"> 
<DataArray  type="Float64"  Name="f_8"  format="ascii">-6.7270942086536771e-03  -3.5451370357218029e-02  -7.5668482041625740e-02  -1.1878922990832139e-01  -1.6233044214025866e-01  -2.0510905570939006e-01  -2.4623165177484696e-01  -2.8512714047655557e-01  -3.2182142412245324e-01  -3.4004711289308714e-01  -6.8859226099334293e-03  -3.6681262426092376e-02  -7.6754978148332154e-02  -1.1935142575647464e-01  -1.6240026644172745e-01  -2.0481567618818186e-01  -2.4570241860154590e-01  -2.8447416079619586e-01  -3.2113837094050723e-01  -3.3921559890273811e-01  -6.9353775872732989e-03  -3.7068085737466644e-02  -7.7363561304919226e-02  -1.1985610626509058e-01  -1.6265318494140329e-01  -2.0481379406092992e-01  -2.4549799937443945e-01  -2.8413659217389919e-01  -3.2073909295089015e-01  -3.3866784821727275e-01  -6.9509740004787719e-03  -3.7198653905840873e-02  -7.7614224383864172e-02  -1.2011177107642988e-01  -1.6282279301163224e-01  -2.0486355267785372e-01  -2.4543653286553332e-01  -2.8399494013055804e-01  -3.2055663521429190e-01  -3.3837959032368009e-01  -6.9525903012551613e-03  -3.7223077508212389e-02  -7.7670647915242461e-02  -1.2017700798408473e-01  -1.6287505939690206e-01  -2.0489216599992338e-01  -2.4544070673609431e-01  -2.8397983202637456e-01  -3.2053007498702352e-01  -3.3827694380442824e-01  -6.9416714951211766e-03  -3.7167460803172070e-02  -7.7572558715680376e-02  -1.2007631302579466e-01  -1.6281330334503849e-01  -2.0489025202503919e-01  -2.4549692168485676e-01  -2.8407748107296860e-01  -3.2064621620117545e-01  -3.3832149653367743e-01  -6.9021707614214459e-03  -3.6974900612408365e-02  -7.7253881387281037e-02  -1.1977758078917473e-01  -1.6264705169586013e-01  -2.0489122005187718e-01  -2.4564631498318831e-01  -2.8432981050772443e-01  -3.2094542591901276e-01  -3.3852635986193608e-01  -6.7660288668631580e-03  -3.6421382468043356e-02  -7.6529459200423769e-02  -1.1926109266867889e-01  -1.6246440561303754e-01  -2.0501495039468332e-01  -2.4600063860669535e-01  -2.8482966677019161e-01  -3.2150646412762574e-01  -3.3895082864552717e-01  -6.2821434432400181e-03  -3.4556797765452119e-02  -7.5314433774188436e-02  -1.1887381636926517e-01  -1.6265121968316479e-01  -2.0557231483257646e-01  -2.4677217497785914e-01  -2.8569128111188646e-01  -3.2236884080566752e-01  -3.3965390245781546e-01  -6.2821434432400181e-03  -3.4556797765452119e-02  -7.5314433774188436e-02  -1.1887381636926517e-01  -1.6265121968316479e-01  -2.0557231483257646e-01  -2.4677217497785914e-01  -2.8569128111188646e-01  -3.2236884080566752e-01  -3.2977163121046477e-01  -7.3361046659837642e-03  -3.7469475526830012e-02  -7.8934522920745515e-02  -1.2337917790782038e-01  -1.6788754628160685e-01  -2.1121444924476859e-01  -2.5255382911048263e-01  -2.9139550703402817e-01  -3.2762800306525919e-01  -3.4546532596319934e-01  -7.4460524335434181e-03  -3.8511109834652293e-02  -7.9851954985147772e-02  -1.2387167977219196e-01  -1.6796156723881908e-01  -2.1095536080459562e-01  -2.5206135212893843e-01  -2.9076720785681620e-01  -3.2696090626012941e-01  -3.4461845360376225e-01  -7.4783279561120922e-03  -3.8815560595085008e-02  -8.0295418211187755e-02  -1.2424097263061465e-01  -1.6813728497215857e-01  -2.1092085407209205e-01  -2.5185183986567744e-01  -2.9044068971927195e-01  -3.2658736332590882e-01  -3.4410718518247685e-01  -7.4873922575422747e-03  -3.8912536526899841e-02  -8.0477115000979760e-02  -1.2442672087670417e-01  -1.6825643039859928e-01  -2.1094241808253916e-01  -2.5178005504319934e-01  -2.9030188573544896e-01  -3.2641995281650893e-01  -3.4385052383990206e-01  -7.4888695706584463e-03  -3.8933948270146748e-02  -8.0521585380764593e-02  -1.2447733100444242e-01  -1.6829647880686785e-01  -2.1096291159677261e-01  -2.5178000217757102e-01  -2.9028566078411694e-01  -3.2639480398934423e-01  -3.4376142223245826e-01  -7.4834703979606010e-03  -3.8902840050091085e-02  -8.0459072369589379e-02  -1.2441108614650423e-01  -1.6825945726977876e-01  -2.1097409078953699e-01  -2.5183953972179896e-01  -2.9037894983573470e-01  -3.2649824454695675e-01  -3.4379854123766396e-01  -7.4566100741023170e-03  -3.8770715590499376e-02  -8.0234879225662720e-02  -1.2419772498145490e-01  -1.6814787598826503e-01  -2.1100064415741507e-01  -2.5199378015253393e-01  -2.9062171142237037e-01  -3.2677229297354815e-01  -3.4397603395721432e-01  -7.3511164195672676e-03  -3.8340923550210487e-02  -7.9684075091300516e-02  -1.2378768888959937e-01  -1.6800599353691581e-01  -2.1112758498613649e-01  -2.5233518331552857e-01  -2.9110386083823636e-01  -3.2730678191164247e-01  -3.4436304843973664e-01  -6.9678993334266123e-03  -3.6945945348011579e-02  -7.8501658685956655e-02  -1.2325246595964562e-01  -1.6803378335120020e-01  -2.1155898489765462e-01  -2.5303040683308486e-01  -2.9194983435636557e-01  -3.2820828164214344e-01  -3.4507447502147970e-01  -6.9678993334266123e-03  -3.6945945348011579e-02  -7.8501658685956655e-02  -1.2325246595964562e-01  -1.6803378335120020e-01  -2.1155898489765462e-01  -2.5303040683308486e-01  -2.9194983435636557e-01  -3.2820828164214344e-01  -3.3547667570803535e-01  -8.0704112061676520e-03  -4.0373197907776055e-02  -8.1483777383208666e-02  -1.2657805904850944e-01  -1.7216679076607783e-01  -2.1648421786410016e-01  -2.5855605673778870e-01  -2.9776210832942129e-01  -3.3365221600639111e-01  -3.5089151702529520e-01  -8.1636307975160444e-03  -4.1158087804645499e-02  -8.2323465785472477e-02  -1.2713171217214456e-01  -1.7234861362122131e-01  -2.1632949053220546e-01  -2.5813962470454843e-01  -2.9717317014692890e-01  -3.3300330309550646e-01  -3.5001216031171778e-01  -8.1884928843039134e-03  -4.1372266275821599e-02  -8.2647387900398495e-02  -1.2741983861064543e-01  -1.7249397243666370e-01  -2.1629784078261191e-01  -2.5794845819076817e-01  -2.9687200988409301e-01  -3.3266759841386956e-01  -3.4955664905194878e-01  -8.1942310002508512e-03  -4.1434154759801008e-02  -8.2768087926810174e-02  -1.2754994054095198e-01  -1.7257791409347883e-01  -2.1630497762298670e-01  -2.5787747879955902e-01  -2.9674494803150536e-01  -3.3252379171856350e-01  -3.4934626579086275e-01  -8.1953985638975602e-03  -4.1448064829826117e-02  -8.2798582026078621e-02  -1.2758670708902273e-01  -1.7260785875896603e-01  -2.1631992490126817e-01  -2.5787563064489039e-01  -2.9672969335955279e-01  -3.3250216776251740e-01  -3.4927693471720228e-01  -8.1922345246538408e-03  -4.1431009449581543e-02  -8.2761606027661444e-02  -1.2754626673479522e-01  -1.7258840427155886e-01  -2.1633823602068869e-01  -2.5793351071881987e-01  -2.9681417611640387e-01  -3.3258867187469454e-01  -3.4930566273200853e-01  -8.1702758159358374e-03  -4.1335569516080924e-02  -8.2604500460459890e-02  -1.2739347051748967e-01  -1.7251076442090429e-01  -2.1637338037657589e-01  -2.5807942280366480e-01  -2.9703669771978769e-01  -3.3282687109186493e-01  -3.4944742119634892e-01  -8.0789546919391442e-03  -4.0982276790465497e-02  -8.2156345347125737e-02  -1.2703549834812256e-01  -1.7236514173690076e-01  -2.1646895406017155e-01  -2.5838547821415236e-01  -2.9748873915478380e-01  -3.3332326252676192e-01  -3.4978028401880146e-01  -7.7629121436780801e-03  -3.9801112846470268e-02  -8.0975245898162129e-02  -1.2632403258866268e-01  -1.7217992113643979e-01  -2.1672540465113760e-01  -2.5897638770935882e-01  -2.9831652256061181e-01  -3.3427735525421148e-01  -3.5048221750353709e-01  -7.7629121436780801e-03  -3.9801112846470268e-02  -8.0975245898162129e-02  -1.2632403258866268e-01  -1.7217992113643979e-01  -2.1672540465113760e-01  -2.5897638770935882e-01  -2.9831652256061181e-01  -3.3427735525421148e-01  -3.4114848580806650e-01  -8.8107507586621808e-03  -4.3757985877363029e-02  -8.5413361982686675e-02  -1.3090665362949677e-01  -1.7726815037232202e-01  -2.2248001239844076e-01  -2.6532369166739389e-01  -3.0497767230347855e-01  -3.4063699791597651e-01  -3.5730980992252054e-01  -8.8947877331100322e-03  -4.4411297338785544e-02  -8.6190809904192450e-02  -1.3150148023320452e-01  -1.7754629640847602e-01  -2.2242741553153583e-01  -2.6498581464556253e-01  -3.0443213029471483e-01  -3.4000746441016227e-01  -3.5639859858018058e-01  -8.9170857183318020e-03  -4.4592411810573246e-02  -8.6461677440093004e-02  -1.3175295923032213e-01  -1.7768661140386341e-01  -2.2241326878249262e-01  -2.6482172341346044e-01  -3.0416159750048788e-01  -3.3971263126517542e-01  -3.5600190299626872e-01  -8.9217451078894283e-03  -4.4639176413494158e-02  -8.6550070701223586e-02  -1.3185055186919303e-01  -1.7775116559744975e-01  -2.2241597183143141e-01  -2.6475769038244279e-01  -3.0405018918829002e-01  -3.3959514379328859e-01  -3.5583988651392229e-01  -8.9226180912329589e-03  -4.4648661827798905e-02  -8.6571038535409983e-02  -1.3187712860781714e-01  -1.7777389682163602e-01  -2.2242753355005263e-01  -2.6475565189000327e-01  -3.0403726000555464e-01  -3.3957853525918014e-01  -3.5579182588902286e-01  -8.9197655086833277e-03  -4.4635871370123259e-02  -8.6545016822971332e-02  -1.3184932109879557e-01  -1.7776277250978809e-01  -2.2244739632385366e-01  -2.6480877974481509e-01  -3.0411143399197099e-01  -3.3964816816348836e-01  -3.5581346703587818e-01  -8.8993249978931294e-03  -4.4553562091960666e-02  -8.6417313017247671e-02  -1.3172531210430935e-01  -1.7769879564175589e-01  -2.2247937988413283e-01  -2.6493952664047982e-01  -3.0430964937944699e-01  -3.3984872618212136e-01  -3.5592004397694393e-01  -8.8164431497781692e-03  -4.4236153347003399e-02  -8.6011503262746730e-02  -1.3138275778712638e-01  -1.7753305026223512e-01  -2.2253509768525404e-01  -2.6520390060886767e-01  -3.0472568445951187e-01  -3.4030211033613378e-01  -3.5619586276551451e-01  -8.5423014349965687e-03  -4.3205693450812141e-02  -8.4877368601558853e-02  -1.3057314380807628e-01  -1.7719026514914585e-01  -2.2264453850863242e-01  -2.6569751460020619e-01  -3.0552508043851040e-01  -3.4128544526692156e-01  -3.5686868689275020e-01  -8.5423014349965687e-03  -4.3205693450812141e-02  -8.4877368601558853e-02  -1.3057314380807628e-01  -1.7719026514914585e-01  -2.2264453850863242e-01  -2.6569751460020619e-01  -3.0552508043851040e-01  -3.4128544526692156e-01  -3.4752347614774992e-01  -9.6218621477568989e-03  -4.7507056642149603e-02  -9.0776813574326834e-02  -1.3718019554465416e-01  -1.8429353975270601e-01  -2.3022015029346943e-01  -2.7367302248440661e-01  -3.1372092562105613e-01  -3.4938022879484043e-01  -3.6574512980071416e-01  -9.6987588227037402e-03  -4.8081205358759385e-02  -9.1502305917505272e-02  -1.3778684426930532e-01  -1.8463112012971228e-01  -2.3024357190250944e-01  -2.7340341761656706e-01  -3.1322309388712710e-01  -3.4877917553792570e-01  -3.6483652396514837e-01  -9.7204800355953913e-03  -4.8248781782990954e-02  -9.1753923493793757e-02  -1.3802901758655378e-01  -1.8478010899262198e-01  -2.3025255626458294e-01  -2.7326906297790421e-01  -3.1298397581714865e-01  -3.4852034041264546e-01  -3.6449127545547200e-01  -9.7255329800913504e-03  -4.8292174315456335e-02  -9.1832100805851483e-02  -1.3811550819606228e-01  -1.8483974938878539e-01  -2.3025883560491064e-01  -2.7321557871216540e-01  -3.1288838287354820e-01  -3.4842490672824966e-01  -3.6436724569490386e-01  -9.7261828491132796e-03  -4.8299693996827070e-02  -9.1848534735235188e-02  -1.3813684516559865e-01  -1.8485879156430199e-01  -2.3026916657580571e-01  -2.7321456759807483e-01  -3.1287836640688937e-01  -3.4841324976930776e-01  -3.6433601123730186e-01  -9.7223780603132026e-03  -4.8285187103959154e-02  -9.1822825882369077e-02  -1.3811052416778657e-01  -1.8484765952975407e-01  -2.3028582217665183e-01  -2.7326119619594919e-01  -3.1294321344088782e-01  -3.4847044298936003e-01  -3.6435357136508600e-01  -9.7017091980103332e-03  -4.8204409076344462e-02  -9.1701007816490876e-02  -1.3799172564702950e-01  -1.8478149221762707e-01  -2.3030626837602378e-01  -2.7337320892388672e-01  -3.1311752854986730e-01  -3.4864027145209281e-01  -3.6443451116975517e-01  -9.6250028473189586e-03  -4.7908380551244273e-02  -9.1313602163880847e-02  -1.3764967440686790e-01  -1.8459314288391834e-01  -2.3032382665475898e-01  -2.7359488880239935e-01  -3.1349252274101763e-01  -3.4904941989170279e-01  -3.6466310952360020e-01  -9.3753352371393206e-03  -4.6978580577866635e-02  -9.0246889740061356e-02  -1.3681922221513329e-01  -1.8416870403676747e-01  -2.3033529054360424e-01  -2.7400523587801684e-01  -3.1423878581606945e-01  -3.5000753061558554e-01  -3.6528431858059351e-01  -9.3753352371393206e-03  -4.6978580577866635e-02  -9.0246889740061356e-02  -1.3681922221513329e-01  -1.8416870403676747e-01  -2.3033529054360424e-01  -2.7400523587801684e-01  -3.1423878581606945e-01  -3.5000753061558554e-01  -3.5553982942680151e-01  -1.0639952425635146e-02  -5.2051672650414799e-02  -9.7893141148755025e-02  -1.4583296042047178e-01  -1.9383733924700003e-01  -2.4033345067392586e-01  -2.8417734660483163e-01  -3.2450753841805646e-01  -3.6045680786231682e-01  -3.7688903274141972e-01  -1.0711596553128977e-02  -5.2579819165843839e-02  -9.8580052854039396e-02  -1.4643406652531274e-01  -1.9420295560227127e-01  -2.4040553732688935e-01  -2.8396365014646741e-01  -3.2406354005496107e-01  -3.5989891422255638e-01  -3.7603957546220373e-01  -1.0734873648244853e-02  -5.2743906435669619e-02  -9.8829493128804249e-02  -1.4668088824682107e-01  -1.9436666331639396e-01  -2.4043813239082851e-01  -2.8385777498687687e-01  -3.2385334153349865e-01  -3.5966622163481921e-01  -3.7573128948914192e-01  -1.0741763245187191e-02  -5.2791303384180643e-02  -9.8910940704621503e-02  -1.4677060882978116e-01  -1.9443171448730528e-01  -2.4045331481729462e-01  -2.8381615635313817e-01  -3.2377099149200400e-01  -3.5958392520651788e-01  -3.7562663937249646e-01  -1.0742282913085210e-02  -5.2798651753889286e-02  -9.8926463615370788e-02  -1.4679079595097227e-01  -1.9445027415283153e-01  -2.4046436953972700e-01  -2.8381706508440163e-01  -3.2376382981848206e-01  -3.5957588552139763e-01  -3.7560372843026268e-01  -1.0736251546251602e-02  -5.2777831148240417e-02  -9.8893932001927545e-02  -1.4675849016189227e-01  -1.9443357032330924e-01  -2.4047501284487899e-01  -2.8385705269575356e-01  -3.2382209771416248e-01  -3.5962775019642856e-01  -3.7562107735506617e-01  -1.0713103824098735e-02  -5.2689688828984060e-02  -9.8763410528922305e-02  -1.4663012268770670e-01  -1.9435525845962442e-01  -2.4047948894264817e-01  -2.8395001270915937e-01  -3.2397657512636308e-01  -3.5977987003600731e-01  -3.7569186541539346e-01  -1.0639836796484919e-02  -5.2405000923149009e-02  -9.8382336223126074e-02  -1.4628267289145441e-01  -1.9414667067823477e-01  -2.4046422091633793e-01  -2.8413115885830875e-01  -3.2430817369355891e-01  -3.6014865343435698e-01  -3.7589286321283949e-01  -1.0404730263646939e-02  -5.1543332394968694e-02  -9.7385587389468717e-02  -1.4547764877440830e-01  -1.9369935888762668e-01  -2.4042117211711100e-01  -2.8446928791515136e-01  -3.2496802936632746e-01  -3.6100989879679707e-01  -3.7644014586563979e-01  -1.0404730263646939e-02  -5.1543332394968694e-02  -9.7385587389468717e-02  -1.4547764877440830e-01  -1.9369935888762668e-01  -2.4042117211711100e-01  -2.8446928791515136e-01  -3.2496802936632746e-01  -3.6100989879679707e-01  -3.6592183859119887e-01  -1.2138770756467965e-02  -5.8266294560710974e-02  -1.0760493202199051e-01  -1.5747351227688194e-01  -2.0636869836981078e-01  -2.5322947855227373e-01  -2.9720601676365466e-01  -3.3764504048196731e-01  -3.7407100578818808e-01  -3.9091938527406839e-01  -1.2210318417578608e-02  -5.8778881209036404e-02  -1.0827278378226263e-01  -1.5806505258929113e-01  -2.0674274491933253e-01  -2.5332806062670282e-01  -2.9703447725910281e-01  -3.3725635623112987e-01  -3.7356782688910506e-01  -3.9018156968529971e-01  -1.2239578440089244e-02  -5.8953287474198979e-02  -1.0853625603813521e-01  -1.5832679025129739e-01  -2.0692305296804397e-01  -2.5338037811505060e-01  -2.9695127219211326e-01  -3.3706877013345143e-01  -3.7334864301954351e-01  -3.8988887702337355e-01  -1.2250260010815750e-02  -5.9012673279738803e-02  -1.0863164197161976e-01  -1.5842913529737324e-01  -2.0699900305069602e-01  -2.5340580988718170e-01  -2.9691972733143823e-01  -3.3699498111611953e-01  -3.7326912916364230e-01  -3.8978219487104904e-01  -1.2250754285621779e-02  -5.9021654923881117e-02  -1.0864920960522911e-01  -1.5845129393599280e-01  -2.0701944463748559e-01  -2.5341887623227577e-01  -2.9692287416552599e-01  -3.3699007375789641e-01  -3.7326278847941752e-01  -3.8975795493055138e-01  -1.2240815523846538e-02  -5.8989641343050903e-02  -1.0860443516508123e-01  -1.5840885607538366e-01  -2.0699517078746135e-01  -2.5342369113776531e-01  -2.9695821781195086e-01  -3.3704560344929380e-01  -3.7331670787830601e-01  -3.8977867238726344e-01  -1.2210907073284455e-02  -5.8881574066021514e-02  -1.0845170207505431e-01  -1.5826119120297297e-01  -2.0690064034293176e-01  -2.5341310960915453e-01  -2.9703637068270616e-01  -3.3718764897573583e-01  -3.7346635832657582e-01  -3.8985594541140911e-01  -1.2133491776065541e-02  -5.8588123182151175e-02  -1.0805897665400982e-01  -1.5790049402578399e-01  -2.0667416194351246e-01  -2.5337275876640925e-01  -2.9718458133374664e-01  -3.3748108289715328e-01  -3.7380666603609902e-01  -3.9005463955832814e-01  -1.1910531297735394e-02  -5.7778102378840873e-02  -1.0712855074300442e-01  -1.5714139356920143e-01  -2.0623730134669657e-01  -2.5330546494478268e-01  -2.9746334673291974e-01  -3.3803551614741700e-01  -3.7451722021862754e-01  -3.9052176675115413e-01  -1.1910531297735394e-02  -5.7778102378840873e-02  -1.0712855074300442e-01  -1.5714139356920143e-01  -2.0623730134669657e-01  -2.5330546494478268e-01  -2.9746334673291974e-01  -3.3803551614741700e-01  -3.7451722021862754e-01  -3.7898858098836447e-01  -1.4801841266896487e-02  -6.7931758791308222e-02  -1.2135649029409368e-01  -1.7290682277944519e-01  -2.2229757362712035e-01  -2.6913607092417258e-01  -3.1290630376143580e-01  -3.5319268721432173e-01  -3.8999367880117503e-01  -4.0740040399347743e-01  -1.4890275908302525e-02  -6.8473004139407601e-02  -1.2203248706556455e-01  -1.7349223289543983e-01  -2.2266671080128170e-01  -2.6923952130940809e-01  -3.1275503881325595e-01  -3.5284498566324368e-01  -3.8954295729611754e-01  -4.0678448813323975e-01  -1.4933081689880084e-02  -6.8681012366350103e-02  -1.2233019555691355e-01  -1.7377589359430651e-01  -2.2285898568058432e-01  -2.6930010992518177e-01  -3.1268100990698455e-01  -3.5266781382008561e-01  -3.8932439760323800e-01  -4.0648503704463163e-01  -1.4950004972846875e-02  -6.8763126223012089e-02  -1.2244943962570504e-01  -1.7389539424763836e-01  -2.2294485532020877e-01  -2.6933105008594349e-01  -3.1265302811455076e-01  -3.5259558083138676e-01  -3.8923901130952238e-01  -4.0635983391419583e-01  -1.4950543833427532e-02  -6.8775953087060387e-02  -1.2247180878998387e-01  -1.7392162937623976e-01  -2.2296819468360682e-01  -2.6934614529055956e-01  -3.1265771960544575e-01  -3.5259173525028392e-01  -3.8923251317173602e-01  -4.0632689662602728e-01  -1.4934524925036247e-02  -6.8727400247288684e-02  -1.2241134721321631e-01  -1.7386908501420742e-01  -2.2293918113094155e-01  -2.6934957123440606e-01  -3.1269336461977515e-01  -3.5264930003055950e-01  -3.8929379257059638e-01  -4.0635284632901580e-01  -1.4891327500640067e-02  -6.8582006253104372e-02  -1.2222403577905103e-01  -1.7369942233701136e-01  -2.2283352496775716e-01  -2.6933366109138945e-01  -3.1276808407225909e-01  -3.5278997746460239e-01  -3.8945349136043206e-01  -4.0644796352591173e-01  -1.4792708396994342e-02  -6.8239053016467682e-02  -1.2179232769967868e-01  -1.7331790277190007e-01  -2.2259621629120774e-01  -2.6928388508599876e-01  -3.1290205086516687e-01  -3.5306272095707592e-01  -3.8978352378386516e-01  -4.0666574121338939e-01  -1.4565575087547189e-02  -6.7445807448659412e-02  -1.2090465982014656e-01  -1.7259600924474766e-01  -2.2217560564848612e-01  -2.6921004542256288e-01  -3.1314693042937969e-01  -3.5353734627351552e-01  -3.9036070686565671e-01  -4.0708373211373783e-01  -1.4565575087547189e-02  -6.7445807448659412e-02  -1.2090465982014656e-01  -1.7259600924474766e-01  -2.2217560564848612e-01  -2.6921004542256288e-01  -3.13146930429379